/*--------------------------------*- C++ -*----------------------------------*\
  =========                 |
  \\      /  F ield         | OpenFOAM: The Open Source CFD Toolbox
   \\    /   O peration     | Website:  https://openfoam.org
    \\  /    A nd           | Version:  10
     \\/     M anipulation  |
\*---------------------------------------------------------------------------*/
FoamFile
{
    format      ascii;
    class       volScalarField;
    location    "0.002";
    object      alpha.air;
}
// * * * * * * * * * * * * * * * * * * * * * * * * * * * * * * * * * * * * * //

dimensions      [0 0 0 0 0 0 0];

internalField   nonuniform List<scalar> 
10000
(
2.23104e-28
-4.71425e-29
8.4769e-30
-7.09689e-29
1.34437e-28
8.96371e-29
-1.48512e-28
-1.51421e-28
1.90338e-28
5.08978e-29
-2.07137e-28
2.1772e-28
5.27264e-28
-6.96719e-29
6.5751e-29
-1.39018e-28
2.01665e-28
-1.71876e-28
-9.82401e-29
-4.88602e-29
5.74925e-29
-1.80723e-28
-8.66923e-29
1.92258e-30
1.33735e-28
-2.06868e-28
-7.47976e-29
2.77625e-28
1.98171e-28
4.02331e-29
-1.97982e-28
-6.86469e-29
2.98697e-28
5.25947e-29
1.96085e-28
7.88531e-29
-2.61529e-28
-1.25224e-28
1.6888e-28
1.50152e-28
-2.97147e-29
1.2161e-28
2.64121e-29
-1.95593e-28
1.56399e-28
-7.74146e-29
2.75226e-28
-3.35454e-28
6.87461e-29
5.25871e-29
3.35219e-28
3.73925e-29
-1.89738e-28
2.65364e-28
-2.70012e-28
-1.22862e-28
-9.73415e-29
1.45211e-28
-2.80341e-28
-1.47515e-28
-5.38003e-28
-1.84153e-28
1.17861e-30
1.43677e-28
5.46184e-28
5.45512e-29
5.6764e-28
-8.71951e-29
2.4133e-28
-2.03633e-29
1.85815e-28
2.48484e-29
7.01673e-28
-2.80035e-29
1.63843e-27
-9.69182e-30
3.55754e-28
4.14093e-29
-3.26107e-27
-1.87143e-29
-2.80773e-28
-9.35872e-30
-1.20654e-27
3.66392e-30
2.01021e-27
7.49579e-30
4.61498e-27
8.6213e-30
5.52076e-27
5.05514e-30
-1.78679e-27
-1.31492e-30
8.2367e-27
4.21263e-30
2.71995e-27
1.59211e-30
-8.81985e-31
-3.99155e-34
-1.64093e-37
-4.58829e-41
2.92674e-23
-1.17069e-23
1.95368e-28
5.85425e-24
3.51207e-23
5.85337e-24
-1.17059e-23
-1.75607e-23
2.34118e-23
1.17078e-23
-1.75581e-23
2.34102e-23
7.02386e-23
-1.75544e-23
-1.89087e-27
-1.75576e-23
2.9263e-23
-2.34088e-23
-5.85412e-24
-1.75614e-23
-1.57538e-27
-2.34093e-23
-1.17091e-23
-1.17088e-23
1.75577e-23
-2.34069e-23
-2.02711e-27
3.51132e-23
3.5123e-23
3.08264e-27
-1.1701e-23
-5.85699e-24
2.92578e-23
5.97812e-27
1.17032e-23
2.34181e-23
-1.75514e-23
-5.85755e-24
1.75517e-23
-1.39913e-28
5.85977e-24
1.17024e-23
1.75639e-23
-4.09676e-23
2.34028e-23
7.41337e-27
1.75486e-23
-3.5099e-23
-5.86865e-24
-5.8532e-24
2.34051e-23
1.75694e-23
-5.84535e-24
5.85169e-23
-1.16854e-23
-2.92698e-23
-5.8562e-24
1.75488e-23
-2.9251e-23
-1.17053e-23
-2.34092e-23
-2.3414e-23
-1.17226e-23
1.16992e-23
2.92651e-23
-1.16997e-23
4.09668e-23
-3.50925e-23
-5.87528e-24
7.97357e-27
1.75561e-23
-5.84935e-24
2.34015e-23
-1.75388e-23
2.92366e-23
-5.83005e-24
-1.04202e-26
5.85079e-23
-4.09119e-23
-4.09811e-23
-2.02918e-26
2.92505e-23
-2.33899e-23
2.92356e-23
2.92766e-23
2.34182e-23
5.85133e-23
4.68186e-23
6.43918e-23
-2.92354e-23
5.85745e-24
4.67951e-23
5.26665e-23
1.17308e-23
1.75581e-23
-5.83719e-24
-6.03676e-27
-2.42264e-30
-6.73149e-34
-1.2904e-37
-5.85361e-24
-1.17067e-23
1.75599e-23
2.34144e-23
-1.17071e-23
-1.1706e-23
-1.75604e-23
-1.75597e-23
-1.59528e-27
-2.92659e-23
-5.85442e-24
2.92655e-23
-1.75574e-23
-1.75604e-23
-1.17078e-23
5.85018e-24
-5.85064e-24
5.85388e-24
2.34114e-23
1.94066e-27
1.75583e-23
4.09723e-23
-1.75521e-23
-5.85791e-24
-2.92652e-23
-2.09835e-27
3.51147e-23
5.85924e-24
-1.7561e-23
-2.92628e-23
1.75559e-23
-3.5119e-23
-2.92648e-23
-1.75619e-23
5.84697e-24
4.68241e-23
-2.92522e-23
-5.8554e-24
-1.17078e-23
-1.17082e-23
2.92603e-23
1.75613e-23
5.37332e-27
-2.17128e-27
1.17073e-23
-5.84896e-24
5.85182e-24
2.34036e-23
-5.84227e-24
-1.75603e-23
-5.32623e-27
5.85776e-24
-1.17083e-23
5.26722e-23
-2.33968e-23
2.33956e-23
2.92656e-23
-1.16919e-23
1.17038e-23
5.8477e-24
5.85926e-24
-4.09682e-23
1.1698e-23
-1.75602e-23
-5.85041e-24
-2.2419e-27
2.34069e-23
1.17106e-23
1.17013e-23
-3.51045e-23
2.92429e-23
-2.33912e-23
-5.86444e-24
-2.92519e-23
2.92586e-23
5.85156e-24
-2.34069e-23
2.34066e-23
3.25249e-27
4.6814e-23
5.85809e-24
-4.0961e-23
-1.17118e-23
-2.92558e-23
1.75379e-23
2.92676e-23
-5.2648e-23
-2.92706e-23
4.09519e-23
-5.83393e-24
1.75454e-23
1.75644e-23
5.85158e-24
3.51135e-23
2.34141e-23
9.6446e-27
-2.8185e-27
-6.63579e-31
-1.18946e-34
-1.3039e-38
4.47704e-28
1.756e-23
-3.51216e-23
1.75599e-23
1.75611e-23
2.34139e-23
5.85333e-24
2.92667e-23
8.24912e-28
1.17084e-23
2.34129e-23
-5.85327e-23
4.68244e-23
-1.17039e-23
-5.85351e-23
-5.85466e-24
4.68247e-23
1.5422e-27
-2.34109e-23
1.75562e-23
-4.68225e-23
4.68228e-23
1.171e-23
1.17063e-23
-4.09709e-23
-3.17444e-27
-1.75592e-23
-1.17076e-23
-2.92689e-23
2.34101e-23
-5.85189e-24
-1.17058e-23
1.17049e-23
5.85588e-24
1.75576e-23
3.51191e-23
6.15276e-27
3.51182e-23
-3.27569e-28
1.75591e-23
1.72801e-27
-2.34111e-23
-5.85368e-24
-2.34133e-23
2.3409e-23
1.17117e-23
-1.48331e-27
3.5118e-23
-2.34065e-23
4.68154e-23
-6.43685e-23
-5.86227e-24
1.75556e-23
5.85464e-24
5.85688e-24
-1.17061e-23
-5.85537e-24
1.75591e-23
4.6454e-27
-4.09685e-23
4.09614e-23
1.17077e-23
-1.16977e-23
2.92599e-23
1.75575e-23
1.75634e-23
-4.09595e-23
-4.09836e-23
-1.17077e-23
-1.17107e-23
-1.75529e-23
-1.75611e-23
4.68133e-23
-5.84484e-24
3.51187e-23
1.75629e-23
-1.75535e-23
-1.7559e-23
1.75487e-23
-1.17073e-23
4.68229e-23
1.17054e-23
5.86176e-24
5.84299e-24
-5.83971e-24
1.75563e-23
1.75562e-23
1.17108e-23
-5.85163e-24
-2.16941e-28
-1.17085e-23
-2.92611e-23
2.34021e-23
2.34188e-23
-2.34112e-23
1.75583e-23
1.15171e-27
7.221e-32
4.41033e-36
1.56465e-40
1.756e-23
5.96869e-29
-3.51208e-23
1.17073e-23
-5.85312e-24
-1.75608e-23
1.14742e-27
1.75602e-23
1.75603e-23
5.85257e-24
6.07227e-28
2.3414e-23
1.17069e-23
1.22614e-27
-4.68278e-23
-1.75614e-23
-1.49065e-27
1.17072e-23
1.17067e-23
2.34135e-23
-2.79742e-28
1.17053e-23
-2.34115e-23
-7.22612e-28
1.75596e-23
-2.34127e-23
-1.75582e-23
-5.8553e-24
-4.68274e-23
1.17053e-23
-1.17076e-23
-1.17085e-23
-2.34114e-23
-2.34137e-23
1.17047e-23
-5.85426e-24
1.75593e-23
3.62326e-27
5.85479e-24
4.68243e-23
3.51213e-23
3.9003e-27
5.8554e-24
4.09706e-23
2.34134e-23
-2.34087e-23
1.75544e-23
-1.75558e-23
-1.17066e-23
-8.26935e-28
-2.55079e-27
5.85409e-24
2.92688e-23
-4.81558e-28
-1.75585e-23
-1.17063e-23
-2.34127e-23
-3.68343e-27
3.5118e-23
2.34167e-23
-3.51159e-23
2.92609e-23
2.34148e-23
1.93898e-27
-2.341e-23
-1.75627e-23
5.84733e-24
-3.5112e-23
-2.36099e-27
-5.26787e-23
-5.85898e-24
5.26752e-23
1.17118e-23
4.09726e-23
2.92681e-23
-5.2672e-23
-1.75662e-23
-5.85633e-24
-2.34074e-23
-1.17107e-23
5.85402e-24
5.85281e-23
1.17196e-23
-6.33398e-27
5.85645e-24
-1.17048e-23
5.85088e-24
3.51183e-23
-5.84957e-24
2.34141e-23
-2.34125e-23
3.51172e-23
5.85617e-24
-1.17057e-23
2.08657e-27
5.85381e-24
4.33721e-32
2.25016e-36
7.18602e-41
2.76916e-45
-3.5121e-23
-1.75609e-23
-1.17073e-23
2.34134e-23
1.756e-23
-2.34126e-23
4.68273e-23
1.17071e-23
2.74778e-28
1.17079e-23
-5.85357e-24
5.26814e-23
-2.34134e-23
5.2679e-23
-2.92655e-23
-3.51209e-23
-1.756e-23
-5.85451e-24
-1.75598e-23
1.17062e-23
-3.51187e-23
1.75595e-23
-9.03312e-28
-5.85222e-24
-5.85307e-24
1.17051e-23
1.17062e-23
-4.09725e-23
1.75587e-23
-2.34124e-23
-4.09738e-23
-1.17074e-23
2.92672e-23
-1.17072e-23
1.17074e-23
1.17069e-23
-4.68265e-23
2.34114e-23
6.43857e-23
-1.75597e-23
1.1707e-23
2.92647e-23
2.34143e-23
1.75626e-23
1.75587e-23
-1.75561e-23
1.17045e-23
3.51169e-23
5.85562e-24
-1.75603e-23
3.1729e-28
-1.75611e-23
2.34105e-23
5.85631e-24
-5.85256e-24
-5.85509e-24
5.85435e-24
-1.75592e-23
5.8521e-24
-1.75596e-23
-1.75604e-23
1.1706e-23
1.1707e-23
-1.17041e-23
5.85058e-24
-4.68243e-23
-1.17077e-23
-1.17074e-23
1.75584e-23
6.43859e-23
5.85737e-24
9.97298e-28
1.7559e-23
-4.09715e-23
1.75576e-23
-5.85267e-24
-1.17055e-23
-1.17083e-23
2.34111e-23
1.75622e-23
-5.85452e-24
-5.10232e-29
-1.31024e-27
-1.75583e-23
-5.85738e-24
1.17085e-23
3.51246e-23
7.60885e-23
4.6832e-23
1.75587e-23
-5.85067e-24
5.85373e-24
1.75579e-23
-1.17046e-23
5.26777e-23
3.5122e-23
1.11368e-27
2.60501e-32
6.07018e-37
7.51564e-42
6.13896e-48
2.70665e-28
-1.75606e-23
2.42678e-28
-1.07048e-28
1.75602e-23
1.17075e-23
-1.17069e-23
1.17071e-23
5.85348e-24
2.34138e-23
1.17066e-23
-1.17064e-23
-1.75603e-23
1.75601e-23
5.85377e-24
5.85315e-24
-3.51204e-23
1.17065e-23
-5.85344e-24
-3.16036e-28
-1.43999e-28
2.92675e-23
5.85429e-24
5.85372e-24
-2.34134e-23
-3.51213e-23
-2.34142e-23
1.756e-23
-5.85303e-24
-1.75601e-23
2.34132e-23
-1.17067e-23
1.51575e-28
3.512e-23
2.92675e-23
3.51212e-23
-1.75599e-23
-5.26811e-23
-3.51203e-23
-1.75607e-23
-1.17067e-23
-2.34133e-23
1.17064e-23
1.1707e-23
5.8533e-24
1.17075e-23
-2.92666e-23
-1.75611e-23
-1.20983e-28
-5.85354e-24
-1.1707e-23
2.92681e-23
5.85433e-24
-1.68624e-27
-1.7559e-23
1.17063e-23
2.92675e-23
2.92671e-23
-4.68269e-23
1.75602e-23
3.51198e-23
5.85523e-24
1.75597e-23
5.29019e-29
2.3414e-23
2.34141e-23
-5.85372e-24
1.50656e-29
2.84047e-29
3.89743e-29
6.68127e-34
1.17066e-23
-1.17068e-23
5.85344e-24
7.25275e-30
-5.85355e-24
-5.85357e-24
-1.75607e-23
5.85358e-24
-5.85355e-24
-4.99023e-30
-1.08934e-35
-5.70748e-42
-6.78265e-48
1.81578e-53
3.48448e-52
3.13877e-29
2.09384e-34
3.18395e-29
3.45922e-34
2.04726e-29
2.53917e-34
-3.58317e-29
-3.96912e-34
8.83954e-29
1.24818e-33
6.29115e-38
5.288e-43
1.28977e-47
8.06754e-43
-1.27989e-42
1.38646e-42
2.85359e-43
5.32035e-43
-5.42626e-43
-6.67814e-43
2.64618e-43
-6.53965e-43
-1.22819e-42
1.43064e-42
6.55048e-43
-4.03917e-43
-3.74255e-42
7.86988e-43
1.72041e-42
-3.90291e-44
-6.09149e-44
-7.62771e-43
-1.97624e-42
-1.85584e-42
1.01122e-42
6.57711e-43
9.5287e-44
3.39834e-42
-1.39432e-42
1.34254e-42
4.1072e-43
2.78037e-42
9.94413e-43
-4.69946e-43
-5.24369e-43
-5.42347e-43
4.01173e-43
1.08392e-43
-3.31759e-43
9.43181e-45
-7.6393e-43
-7.87703e-43
-2.12936e-43
-1.03806e-42
5.18663e-43
5.61077e-43
-1.56596e-42
-1.4581e-42
-2.38697e-42
1.79697e-42
-1.6272e-42
-9.24743e-43
2.59403e-43
4.43539e-43
2.21433e-43
-4.0166e-43
-9.67986e-43
5.41549e-44
6.01284e-43
-1.91369e-43
-9.32628e-43
4.63543e-43
7.96045e-43
-7.53748e-43
6.84873e-43
6.75861e-43
2.29154e-43
3.02507e-42
-3.29987e-44
-1.18228e-42
1.05445e-42
2.90468e-42
-4.79224e-44
7.77086e-44
-4.37601e-44
6.93258e-43
-8.05209e-45
2.03801e-42
-2.94057e-44
-9.74737e-45
-4.3401e-44
-7.05068e-47
6.74182e-47
-2.00281e-46
-1.30532e-46
1.81423e-45
8.1872e-48
3.66863e-47
8.85941e-48
3.51573e-47
6.40216e-49
3.51936e-47
1.77425e-48
-1.31873e-47
-1.62671e-48
5.34432e-48
-1.18126e-53
-9.69787e-53
5.43358e-53
-7.5555e-60
3.38757e-54
5.536e-59
8.12023e-60
8.31517e-38
-1.63592e-37
1.45732e-37
1.17799e-38
5.77807e-38
-6.48695e-38
-1.12488e-37
3.67985e-38
-7.70396e-38
-1.38236e-37
1.52554e-37
8.96299e-38
-4.11512e-38
-4.04154e-37
8.75392e-38
1.56207e-37
-3.40339e-39
-1.13778e-39
-1.17229e-37
-2.07608e-37
-2.25765e-37
1.14547e-37
7.66541e-38
2.06531e-38
3.42059e-37
-1.61356e-37
9.48172e-38
5.80552e-38
3.15228e-37
1.2922e-37
-4.54855e-39
-6.49538e-38
-6.58379e-38
5.60698e-38
4.28328e-38
-6.3404e-38
-1.70675e-39
-9.7315e-38
-9.55097e-38
-2.79762e-38
-1.24108e-37
4.55182e-38
2.60766e-38
-2.19806e-37
-1.51672e-37
-2.66873e-37
2.08524e-37
-1.83226e-37
-8.19745e-38
3.62442e-38
6.08588e-38
2.43908e-38
1.71079e-39
-9.1335e-38
-5.57372e-40
1.10954e-37
-2.86812e-38
-1.40636e-37
5.00352e-38
9.83663e-38
-5.77624e-38
8.93525e-38
8.1542e-38
1.6987e-38
2.95485e-37
-5.65002e-39
-1.30471e-37
1.70862e-37
3.01621e-37
-1.80813e-38
1.40299e-38
-9.76332e-39
4.76932e-38
-2.03984e-39
1.76845e-37
-9.39169e-39
-1.01917e-39
-1.30011e-38
-1.97391e-41
1.13028e-40
-1.62633e-40
-1.68527e-40
8.14236e-40
2.12731e-42
-3.24128e-41
2.38697e-42
3.20649e-42
2.64047e-43
2.51429e-42
4.68552e-43
-1.29512e-42
-5.42005e-43
7.0669e-43
-1.26098e-46
-7.63457e-47
1.17659e-46
-1.31417e-53
-2.51473e-62
-6.32662e-68
-3.36986e-74
6.69154e-33
-1.66296e-32
1.11002e-32
-1.10302e-33
4.58475e-33
-5.53669e-33
-1.48688e-32
3.21562e-33
-6.87295e-33
-1.28196e-32
1.19104e-32
1.01081e-32
-2.17212e-33
-3.31268e-32
7.33892e-33
8.71829e-33
4.7904e-35
1.39584e-33
-1.33238e-32
-1.59895e-32
-2.34917e-32
1.05518e-32
6.55967e-33
3.09028e-33
2.64378e-32
-1.2651e-32
2.36076e-33
6.47065e-33
2.75715e-32
1.28896e-32
4.89331e-33
-8.5429e-33
-6.1298e-33
5.85176e-33
7.10832e-33
-9.15559e-33
-5.7738e-36
-9.68353e-33
-1.10375e-32
-1.80049e-33
-1.18575e-32
1.66548e-33
-1.47757e-33
-2.27417e-32
-1.2619e-32
-2.32325e-32
2.03346e-32
-1.45676e-32
-4.14848e-33
3.49458e-33
7.52569e-33
9.84911e-34
3.8367e-33
-4.91216e-33
-4.57361e-34
1.46058e-32
-3.57462e-33
-1.60624e-32
4.16662e-33
7.88997e-33
-2.60451e-33
7.94518e-33
7.2715e-33
-2.95408e-34
2.24705e-32
-7.52099e-34
-1.11387e-32
2.02098e-32
2.40965e-32
-3.76597e-33
2.18033e-33
-1.27264e-33
1.32578e-33
-4.00035e-34
1.13206e-32
-1.88242e-33
-7.77856e-35
-2.36492e-33
-2.03753e-35
1.17981e-34
-1.38757e-34
-1.08777e-34
3.48173e-34
3.30205e-37
-5.00242e-35
3.71681e-37
2.78891e-37
5.4822e-38
1.51869e-37
7.35336e-38
-1.20947e-37
-9.90238e-38
9.14918e-38
-2.23147e-40
-6.53535e-41
1.39552e-40
-2.12394e-47
-6.43911e-58
-6.29876e-64
-1.71807e-70
4.8995e-28
-1.18199e-27
5.31971e-28
-2.15092e-28
2.53744e-28
-2.55873e-28
-1.40262e-27
1.20939e-28
-4.09692e-28
-9.00246e-28
5.36637e-28
8.78914e-28
1.04057e-28
-1.71297e-27
4.13154e-28
1.12992e-28
3.5583e-29
3.52171e-28
-1.05534e-27
-7.55696e-28
-1.99449e-27
7.59605e-28
3.74981e-28
2.40504e-28
1.56526e-27
-4.43231e-28
-2.8696e-28
5.20355e-28
1.69736e-27
8.46083e-28
7.47233e-28
-1.06856e-27
-3.87322e-28
3.94623e-28
7.53225e-28
-9.00713e-28
8.31746e-29
-7.3253e-28
-1.00152e-27
9.84247e-29
-7.85775e-28
-1.736e-28
-4.26763e-28
-1.52499e-27
-8.66361e-28
-1.51324e-27
1.54229e-27
-5.59173e-28
5.15507e-29
2.88672e-28
7.49919e-28
-8.57349e-29
3.70731e-28
-6.959e-29
-2.30373e-29
1.2334e-27
-3.87042e-28
-1.15623e-27
3.02235e-28
2.25005e-28
6.47984e-29
3.64668e-28
3.37974e-28
-2.82917e-28
1.19925e-27
-3.97968e-29
-6.07393e-28
1.50997e-27
1.27078e-27
-4.78125e-28
3.07349e-28
-6.78594e-29
-1.26912e-28
-7.62794e-29
4.13194e-28
-2.14629e-28
-3.3144e-30
-2.41536e-28
-2.15967e-29
7.46717e-29
-9.35156e-29
-4.21177e-29
1.15561e-28
3.35927e-32
-3.52111e-29
3.99107e-32
2.03797e-32
7.10759e-33
5.54821e-33
8.67903e-33
-8.86106e-33
-1.15415e-32
1.0051e-32
-2.1435e-34
-4.39045e-35
1.06356e-34
-3.04076e-41
-1.50983e-53
-6.25747e-60
-7.46869e-67
3.5121e-23
-3.5119e-23
1.17074e-23
-1.17073e-23
1.17085e-23
1.60309e-27
-7.0243e-23
2.27385e-28
-1.17063e-23
-3.51211e-23
-6.72611e-29
4.68277e-23
2.34162e-23
-2.3413e-23
1.17056e-23
-1.17058e-23
-8.31798e-28
3.51196e-23
-4.68268e-23
-1.17066e-23
-1.05363e-22
3.51212e-23
1.17079e-23
1.25107e-27
7.02407e-23
1.1707e-23
-2.34131e-23
2.34126e-23
5.85336e-23
2.34147e-23
4.68275e-23
-8.19484e-23
-1.17071e-23
1.1707e-23
4.68271e-23
-4.68284e-23
1.1706e-23
-3.51191e-23
-4.68261e-23
2.34146e-23
-2.34155e-23
-2.3412e-23
-3.51224e-23
-5.8534e-23
-4.68276e-23
-5.85327e-23
5.85344e-23
4.6831e-23
2.34121e-23
4.68296e-23
4.6828e-23
2.34139e-23
-1.22048e-28
2.34143e-23
1.17068e-23
5.85334e-23
-4.68283e-23
2.56671e-28
2.34128e-23
-6.21211e-28
2.3415e-23
-3.50973e-28
-1.17071e-23
-3.5122e-23
2.34138e-23
1.17083e-23
2.0622e-27
5.85349e-23
1.17054e-23
-4.68272e-23
3.51219e-23
-9.84312e-28
-1.17059e-23
-1.17081e-23
-8.00981e-28
-1.17061e-23
-5.26349e-28
-1.17086e-23
-1.17098e-23
2.3415e-23
-3.51225e-23
-1.17064e-23
2.3415e-23
2.16933e-27
-1.17082e-23
3.03313e-27
1.10813e-27
5.07863e-28
-6.89984e-29
7.68493e-28
-3.24571e-28
-7.06443e-28
7.80856e-28
-1.20214e-28
-1.60562e-29
5.05556e-29
-3.24862e-35
-2.04825e-49
-3.5857e-56
-1.15278e-63
3.97574e-28
5.85358e-23
1.17068e-23
5.26533e-28
4.68271e-23
5.85365e-23
-4.68269e-23
1.17056e-23
-7.25126e-29
-3.51208e-23
4.68288e-23
-3.51204e-23
5.8534e-23
2.30812e-28
-1.17068e-23
-4.09279e-27
-4.68281e-23
-5.85335e-23
2.34143e-23
-1.17045e-23
-1.17061e-23
1.17079e-23
4.68279e-23
5.85341e-23
-2.34154e-23
9.23469e-28
1.17042e-23
-4.68281e-23
-3.51221e-23
4.68271e-23
1.17082e-23
2.34151e-23
-3.51241e-23
1.17037e-23
-4.68278e-23
-5.8534e-23
-3.51193e-23
4.6826e-23
3.51214e-23
7.02425e-23
-5.85317e-23
1.17067e-22
-3.51212e-23
-2.34135e-23
1.17073e-23
-1.17058e-23
-6.67083e-28
5.85344e-23
-3.51183e-23
7.02414e-23
-7.33562e-28
-4.68263e-23
-2.34153e-23
2.34146e-23
-5.85347e-23
2.18365e-27
-1.10038e-29
-5.85348e-23
-4.68268e-23
-5.41999e-30
2.34127e-23
-1.17089e-23
3.51195e-23
-5.85324e-23
4.68282e-23
1.17047e-23
1.17092e-23
1.17049e-23
-1.17059e-23
1.17048e-23
4.68267e-23
-7.0242e-23
7.02388e-23
-1.17062e-23
-2.34144e-23
2.34141e-23
-2.34139e-23
-5.85351e-23
-7.02391e-23
-3.26091e-27
-2.34139e-23
3.51213e-23
3.51196e-23
7.02386e-23
-4.68239e-23
1.40482e-22
3.51189e-23
1.17065e-23
-1.17076e-23
4.68283e-23
1.17074e-23
2.95018e-27
2.34124e-23
-2.34138e-23
-1.19789e-27
1.17069e-23
-1.88973e-29
-2.67381e-46
-8.29135e-54
-1.66411e-63
-1.90494e-27
2.34127e-23
-2.34147e-23
3.51215e-23
3.51234e-23
1.05362e-22
1.17066e-23
-3.51205e-23
-3.5123e-23
-1.17075e-23
-2.59659e-27
2.3413e-23
1.17062e-23
1.17061e-23
-5.85352e-23
-1.0536e-22
2.34153e-23
2.34136e-23
2.34132e-23
8.19459e-23
2.34141e-23
3.51214e-23
1.17043e-23
-1.17073e-23
-3.51204e-23
1.1707e-23
-4.68259e-23
4.6832e-23
-3.51225e-23
5.75765e-28
4.68264e-23
5.85325e-23
-1.5219e-22
-1.17069e-22
5.85355e-23
1.17061e-23
2.34143e-23
-7.02406e-23
5.85361e-23
3.51216e-23
4.68275e-23
-4.68275e-23
-4.68273e-23
1.17061e-23
1.17069e-23
1.28777e-22
1.17075e-23
4.68247e-23
-1.17091e-23
1.17081e-23
1.17054e-23
5.85335e-23
-4.68287e-23
3.51219e-23
2.34157e-23
2.34118e-23
4.68276e-23
-5.85368e-23
1.17074e-23
2.34151e-23
1.17053e-23
-1.28779e-22
-2.34089e-23
9.3656e-23
3.51193e-23
-7.02379e-23
7.02387e-23
-7.02393e-23
4.68259e-23
-8.19502e-23
-2.34124e-23
-1.17084e-23
-5.85329e-23
-4.68267e-23
-7.52254e-29
3.51215e-23
-8.09841e-28
1.78704e-27
-1.17076e-23
-2.34124e-23
-3.51191e-23
3.5121e-23
-1.17069e-22
-5.85342e-23
7.02407e-23
-1.1708e-23
-7.02409e-23
-1.17089e-23
-3.5123e-23
2.58095e-28
-1.17061e-23
8.19484e-23
-3.51207e-23
2.34134e-23
-8.19485e-23
1.17073e-23
2.3428e-29
8.07727e-55
6.95731e-63
2.07015e-69
-7.02416e-23
-1.17083e-23
-2.34143e-23
2.34126e-23
5.85335e-23
3.84706e-28
-3.51213e-23
1.17081e-23
-4.68265e-23
-2.34125e-23
-9.36547e-23
-7.02411e-23
-1.17054e-23
-3.51193e-23
3.51205e-23
8.1948e-23
2.34144e-23
-3.51214e-23
-5.85344e-23
1.47603e-27
-2.34141e-23
5.85331e-23
-8.19472e-23
1.17076e-23
-1.17049e-23
-7.98387e-28
3.51204e-23
1.1707e-22
-7.02405e-23
-1.17088e-23
-5.85342e-23
-5.85342e-23
-1.17104e-23
-3.51207e-23
-7.20374e-28
-2.34127e-23
2.34109e-23
2.34139e-23
1.17066e-23
8.19488e-23
1.17069e-23
-3.51204e-23
2.3414e-23
1.37768e-27
-1.17072e-23
4.68276e-23
4.68273e-23
-8.19494e-23
-5.85326e-23
2.34129e-23
-1.05363e-22
1.45672e-27
-4.68265e-23
2.34118e-23
3.51183e-23
-3.51199e-23
-3.51228e-23
-4.68261e-23
-2.34164e-23
-4.68271e-23
-1.05363e-22
-9.3652e-23
1.40481e-22
-1.76782e-27
-4.68271e-23
1.63896e-22
-1.17083e-23
8.19489e-23
-2.34126e-23
-1.17069e-22
4.6825e-23
-7.0242e-23
-9.58301e-28
1.05364e-22
-1.17049e-23
9.36566e-23
7.0243e-23
1.75349e-27
3.51218e-23
-1.94335e-27
-1.17058e-23
-5.67043e-28
2.34129e-23
1.17085e-23
1.17068e-23
-3.51199e-23
-1.17092e-23
-7.02404e-23
-1.17068e-22
4.68269e-23
2.34142e-23
7.02431e-23
-3.51213e-23
-4.54417e-28
1.17066e-23
-3.51205e-23
-3.19075e-29
1.34661e-48
1.05384e-56
2.3526e-64
1.56206e-28
-5.85346e-23
3.51212e-23
-8.19492e-23
-1.17078e-23
-1.17074e-23
-1.17074e-23
-3.51214e-23
3.51217e-23
7.0242e-23
-2.09459e-27
3.51197e-23
4.6826e-23
3.51208e-23
-5.85354e-23
-2.34134e-23
3.51222e-23
4.68289e-23
4.68276e-23
2.34139e-23
4.68284e-23
-5.8535e-23
4.68283e-23
1.17071e-23
4.68268e-23
-3.51206e-23
-1.17075e-23
8.19477e-23
-1.1707e-23
-5.85358e-23
-1.17063e-23
-2.34143e-23
-1.5219e-22
-1.05363e-22
-3.51203e-23
5.85337e-23
-7.02403e-23
7.02426e-23
7.02422e-23
7.38986e-28
3.51222e-23
1.17053e-23
-4.6828e-23
7.02415e-23
3.51214e-23
-2.34137e-23
-1.1707e-23
-9.36545e-23
5.85332e-23
1.17076e-23
-1.17064e-23
5.85338e-23
2.34132e-23
-4.68278e-23
-5.85345e-23
3.51212e-23
-4.68268e-23
-3.51207e-23
7.7299e-28
4.68268e-23
9.92594e-28
2.34134e-23
1.17071e-23
-3.51209e-23
-4.68278e-23
-2.34145e-23
-9.36551e-23
1.17069e-23
5.85336e-23
-2.34137e-23
-2.3414e-23
-3.512e-23
-5.85338e-23
4.68278e-23
4.68278e-23
7.02418e-23
1.17072e-23
3.51197e-23
1.17055e-23
-4.68265e-23
-3.51225e-23
3.51203e-23
-7.0241e-23
7.02409e-23
2.34144e-23
5.85344e-23
-4.68267e-23
5.85337e-23
-1.17059e-23
1.17074e-23
3.51213e-23
4.68271e-23
-3.51212e-23
4.57128e-28
-2.34135e-23
5.85348e-23
-1.17071e-23
1.86246e-42
2.04097e-50
5.18816e-58
1.02922e-28
-1.17065e-23
-2.34136e-23
-4.68268e-23
4.47445e-28
3.51221e-23
-5.85356e-23
4.68268e-23
7.02422e-23
1.17071e-23
-5.85346e-23
-1.17063e-23
-5.85358e-23
2.34152e-23
-2.34112e-23
1.17069e-23
5.85344e-23
-1.17077e-23
-3.51205e-23
2.34155e-23
1.17079e-23
-1.1706e-23
4.68335e-28
5.85352e-23
1.17055e-23
-2.34142e-23
-3.89216e-28
-5.85344e-23
1.17069e-23
-8.19487e-23
-1.56541e-27
4.68289e-23
-5.85342e-23
7.6499e-28
7.02431e-23
2.73076e-27
-5.85354e-23
1.17079e-23
2.34132e-23
3.51209e-23
2.34144e-23
-5.85336e-23
-1.17078e-23
2.34134e-23
-4.68265e-23
-1.17062e-23
1.17089e-23
-2.34135e-23
-3.51193e-23
-1.17085e-23
1.1706e-23
-2.34127e-23
-1.17079e-23
-7.02413e-23
-1.17072e-23
-1.17063e-23
2.34144e-23
5.85364e-23
1.17072e-23
1.17061e-23
4.30153e-28
2.34135e-23
-1.41177e-27
-2.34124e-23
-3.0463e-30
-5.41485e-28
5.57327e-28
1.76938e-27
-7.23457e-28
1.17061e-23
-2.34145e-23
1.3727e-28
2.3414e-23
-3.24488e-28
-9.7301e-28
1.17054e-23
6.74485e-28
-1.51062e-29
-2.34148e-23
1.3811e-27
-1.04798e-27
-3.67552e-28
-7.27469e-28
-9.35421e-28
-7.79364e-28
5.92034e-28
-2.23898e-28
-6.25939e-29
-6.59846e-28
-1.63519e-27
9.6299e-28
5.34867e-29
5.4852e-28
6.79331e-29
-7.52191e-28
6.61473e-28
3.39958e-29
2.03538e-36
3.17084e-44
1.00205e-51
-4.68279e-23
2.34147e-23
-1.17073e-23
7.02398e-23
-1.17081e-23
8.19498e-23
-3.5119e-23
-8.19499e-23
5.85345e-23
4.68288e-23
-1.17078e-23
2.34111e-23
-7.02408e-23
4.68279e-23
8.19478e-23
1.17064e-23
1.17079e-23
-1.17061e-23
-3.51232e-23
5.85359e-23
2.34126e-23
2.34126e-23
3.51205e-23
-2.34132e-23
-5.85338e-23
2.78469e-28
-7.02416e-23
-3.51218e-23
-2.34146e-23
4.68278e-23
1.54835e-27
8.19506e-23
1.17071e-23
7.02427e-23
-2.59026e-27
8.19462e-23
1.17079e-23
4.6826e-23
1.17082e-23
-2.34142e-23
3.51206e-23
5.8534e-23
1.17083e-23
-8.19507e-23
8.19488e-23
4.68276e-23
2.34111e-23
-2.34148e-23
7.02431e-23
-4.68278e-23
-2.34116e-23
-1.13358e-27
-4.68273e-23
1.17045e-23
-1.17067e-23
5.85366e-23
2.34128e-23
8.19476e-23
1.17102e-23
-1.17077e-23
-1.17074e-23
-1.1707e-23
-2.34126e-23
2.34112e-23
1.17073e-23
-1.17082e-23
5.85348e-23
5.85334e-23
-2.34138e-23
-5.85344e-23
1.17084e-23
1.1707e-23
3.51207e-23
-1.17065e-23
-2.3414e-23
-4.68271e-23
5.85347e-23
-1.17068e-23
-2.34152e-23
4.68258e-23
-4.68288e-23
-2.34139e-23
-3.51202e-23
-3.51214e-23
-1.17056e-23
1.17066e-23
-1.49436e-28
1.17054e-23
-4.68278e-23
-4.68263e-23
2.3412e-23
-1.17064e-23
2.34137e-23
3.51213e-23
-5.85349e-23
4.68279e-23
1.17071e-23
1.14094e-30
3.7897e-38
1.16509e-45
1.17061e-23
2.34136e-23
-1.17084e-23
-8.1948e-23
-4.68279e-23
1.17078e-23
8.19482e-23
-4.68279e-23
-4.68275e-23
-9.55852e-28
-4.68271e-23
-1.05362e-22
3.51211e-23
3.12189e-28
2.34156e-23
-1.17072e-23
4.68282e-23
3.51184e-23
-2.34148e-23
5.85335e-23
-2.34125e-23
-4.68283e-23
-2.34145e-23
1.17062e-23
-1.06944e-27
-1.1708e-23
1.17061e-23
-1.17078e-23
-1.40492e-28
-2.3413e-23
3.51212e-23
4.68269e-23
2.34139e-23
2.34128e-23
-5.85337e-23
-7.0243e-23
2.3414e-23
-4.68283e-23
3.27733e-31
5.52329e-28
-2.34145e-23
1.17073e-23
3.88731e-28
-1.05363e-22
-1.17064e-23
4.78806e-28
-5.85354e-23
-1.17071e-23
3.51202e-23
1.17073e-23
7.02406e-23
-5.63189e-28
4.68298e-23
-4.68265e-23
-3.63703e-28
1.05363e-22
-1.17063e-23
-2.34141e-23
9.36537e-23
-5.85334e-23
2.3414e-23
1.17065e-23
-1.17074e-23
-7.02414e-23
4.68293e-23
-7.02408e-23
-2.3414e-23
-1.17072e-23
1.17085e-23
3.51224e-23
8.19491e-23
-1.17081e-23
5.48812e-28
3.51214e-23
-4.68281e-23
-7.02428e-23
3.61122e-28
3.51208e-23
-8.19484e-23
-2.34134e-23
-3.51198e-23
-1.83535e-28
-7.48592e-28
-5.85347e-23
-1.17081e-23
3.51214e-23
-2.3414e-23
-1.05362e-22
1.17067e-23
2.34138e-23
-8.19487e-23
3.51206e-23
-6.48449e-30
-1.17071e-23
-1.14907e-30
-4.61152e-38
5.29152e-40
1.7316e-46
2.43306e-53
2.66211e-60
-9.22758e-28
-2.34151e-23
-2.85699e-28
1.17061e-23
-2.34124e-23
3.51202e-23
1.17085e-23
-1.17054e-23
1.1708e-23
1.70485e-27
2.34134e-23
-1.17059e-23
3.51217e-23
2.34114e-23
3.51217e-23
-3.51211e-23
1.17038e-23
-8.1947e-23
-4.68267e-23
-4.68272e-23
7.02403e-23
-1.17061e-23
-2.34135e-23
-1.17082e-23
-2.3414e-23
2.34157e-23
-2.34139e-23
-2.34128e-23
-4.03101e-28
3.85431e-28
4.68273e-23
-1.17061e-23
-2.3413e-23
-2.34128e-23
3.51214e-23
-3.51197e-23
4.6827e-23
-4.68278e-23
3.51196e-23
2.3412e-23
-1.17064e-23
1.17073e-23
3.51203e-23
7.77591e-28
5.85352e-23
3.51191e-23
-8.19481e-23
-1.17086e-23
-2.78202e-27
-1.17063e-23
-1.17071e-23
-2.34141e-23
8.19491e-23
4.68294e-23
-1.17072e-23
1.1707e-23
1.17093e-23
-3.51197e-23
2.34138e-23
1.17049e-23
1.17069e-23
-2.34133e-23
-3.51232e-23
1.1707e-23
4.68269e-23
-1.24547e-27
6.32144e-28
-3.51217e-23
4.68279e-23
5.85362e-23
-2.34138e-23
-3.51222e-23
-3.51239e-23
2.34163e-23
-1.17068e-23
-2.34144e-23
-1.1708e-23
-1.44381e-28
-1.17075e-23
-1.17084e-23
-1.17077e-23
-1.17075e-23
-1.17065e-23
1.25836e-27
-1.17072e-23
-6.40861e-28
-4.85886e-28
8.94856e-28
-1.16467e-27
-2.01474e-28
3.60119e-28
-3.35094e-33
2.77554e-33
5.17354e-33
5.34471e-33
2.34158e-33
2.47322e-34
8.16538e-41
1.21994e-47
1.33904e-54
-7.02425e-23
-4.68273e-23
-1.17057e-23
-7.02405e-23
7.02412e-23
-4.68279e-23
4.68278e-23
1.17052e-23
3.51202e-23
5.85357e-23
-4.68292e-23
3.51215e-23
8.19483e-23
-9.36561e-23
4.68278e-23
-3.51211e-23
-1.28775e-22
-4.10178e-28
1.17079e-23
-4.68282e-23
-1.17071e-22
-1.24061e-27
1.17072e-23
-1.17045e-23
1.17071e-23
1.595e-27
-2.34139e-23
-1.17078e-23
1.00901e-27
2.34128e-23
-1.17068e-23
8.19484e-23
-1.37529e-27
1.17056e-23
2.34144e-23
2.34143e-23
-2.34128e-23
-2.34151e-23
-8.19476e-23
-8.1948e-23
1.17067e-23
-1.17078e-23
-3.51219e-23
1.17055e-23
2.34136e-23
-7.02414e-23
2.34134e-23
-2.34131e-23
-1.28776e-22
1.17066e-23
-2.34135e-23
-2.34136e-23
5.85358e-23
2.34136e-23
2.34164e-23
2.34133e-23
1.17069e-22
2.34144e-23
-4.68282e-23
-7.02421e-23
1.17083e-23
1.17072e-23
-5.85349e-23
3.5122e-23
-2.34145e-23
-3.51209e-23
7.21472e-28
-5.85353e-23
1.17057e-23
8.19461e-23
4.68273e-23
-8.19475e-23
-1.5219e-22
8.19463e-23
3.51231e-23
-2.34133e-23
-2.34139e-23
-1.17058e-23
-1.51418e-28
-2.34135e-23
3.46043e-30
2.34128e-23
2.34169e-23
5.85342e-23
-1.17064e-23
-2.34134e-23
-3.51199e-23
8.19484e-23
-3.51189e-23
-1.17047e-23
2.3415e-23
-8.64469e-30
2.22864e-28
3.87716e-28
1.79252e-28
2.07723e-28
7.637e-29
2.46376e-35
3.70508e-42
3.96441e-49
-7.02409e-23
-2.99661e-28
4.68289e-23
4.68279e-23
-3.51204e-23
-1.04456e-27
4.68311e-23
-3.51192e-23
-1.17084e-23
4.68259e-23
-5.85326e-23
-2.77899e-27
-3.51204e-23
-2.34111e-23
2.34132e-23
-1.17086e-23
-2.34156e-23
1.17064e-23
4.68308e-23
4.40624e-28
-1.05362e-22
-3.51182e-23
-8.256e-28
9.36558e-23
-1.17044e-23
9.36539e-23
-1.17072e-23
1.17089e-23
3.51191e-23
-5.85342e-23
-1.1709e-23
-1.17085e-23
2.3412e-23
-2.34146e-23
1.17072e-23
-1.17053e-23
4.68284e-23
-7.02403e-23
3.51189e-23
-3.51199e-23
-1.17088e-23
-5.8533e-23
-7.13015e-28
-3.51198e-23
-4.68279e-23
3.51221e-23
-1.17071e-23
-2.34143e-23
-2.34144e-23
3.51238e-23
2.34155e-23
2.34136e-23
2.3414e-23
3.51219e-23
5.85344e-23
-5.85336e-23
-1.17103e-23
1.17098e-23
3.51213e-23
-2.34143e-23
3.51205e-23
-3.5119e-23
-5.8534e-23
2.34131e-23
-4.68282e-23
-5.85357e-23
4.68282e-23
2.34151e-23
-3.51235e-23
-1.1707e-22
-1.08622e-28
3.51208e-23
3.51223e-23
1.17068e-23
-1.73591e-28
-1.17066e-23
1.18094e-27
5.85332e-23
-2.34126e-23
-1.17067e-23
-1.1708e-23
-9.36548e-23
1.17068e-22
-3.55916e-28
-2.34155e-23
-6.36869e-28
7.02421e-23
1.19055e-27
8.19486e-23
9.36546e-23
5.85347e-23
2.34145e-23
1.17069e-23
2.34139e-23
-2.34145e-23
2.34141e-23
1.17071e-23
3.60364e-30
5.25185e-37
5.33427e-44
3.51212e-23
-4.65801e-28
3.51197e-23
7.02429e-23
2.3413e-23
-4.68286e-23
1.52189e-22
9.36567e-23
-4.68266e-23
-4.68284e-23
8.19473e-23
-7.02401e-23
-1.22925e-27
4.6827e-23
-1.1708e-23
-3.51191e-23
-1.17064e-23
1.14286e-27
1.28774e-22
2.34137e-23
-1.17084e-23
7.02412e-23
-5.85342e-23
2.34149e-23
7.02405e-23
-3.51203e-23
1.17071e-23
4.6827e-23
-3.51202e-23
2.34117e-23
-8.19485e-23
-2.34128e-23
-8.19467e-23
-5.85351e-23
-4.68304e-23
8.19491e-23
1.17055e-23
9.36537e-23
-8.19479e-23
4.68261e-23
-4.68249e-23
9.36564e-23
-2.34137e-23
-1.17087e-23
-2.3416e-23
1.17078e-23
1.17084e-23
1.17087e-23
-3.51186e-23
5.85311e-23
5.85327e-23
-3.51204e-23
-3.51234e-23
1.17069e-23
3.51215e-23
-1.17075e-23
-1.17069e-22
1.17068e-22
-7.9135e-28
-4.68269e-23
2.34132e-23
1.05359e-22
3.512e-23
1.17086e-23
-3.51203e-23
3.51208e-23
7.30784e-28
-1.17075e-23
-1.17069e-22
-3.51205e-23
-1.17051e-23
3.51231e-23
1.17063e-23
-5.85345e-23
2.34127e-23
5.85341e-23
-1.40066e-27
2.91234e-27
7.02424e-23
-4.68292e-23
-3.51209e-23
-2.3413e-23
-1.17077e-23
-2.34156e-23
-2.34127e-23
-3.51211e-23
1.17082e-23
-4.37075e-28
9.15407e-29
-1.17061e-23
-1.23167e-27
1.17055e-23
-4.36746e-28
-3.5187e-28
5.07442e-28
7.167e-28
5.88039e-34
2.51658e-40
6.94538e-47
1.47483e-53
7.02399e-23
-2.34148e-23
-2.34123e-23
2.34133e-23
1.17072e-23
-2.34137e-23
-3.51221e-23
5.85346e-23
4.68255e-23
-5.85328e-23
-2.34142e-23
4.68278e-23
-5.85344e-23
2.34135e-23
-9.36549e-23
4.68268e-23
1.17085e-23
1.17062e-23
-3.51203e-23
2.3413e-23
1.17073e-23
1.1706e-23
4.68265e-23
-1.17085e-23
-3.51225e-23
1.17068e-23
-2.34152e-23
4.68293e-23
-3.51199e-23
-3.51199e-23
-1.17069e-23
-3.5121e-23
5.85329e-23
-1.17048e-23
-8.19476e-23
1.17068e-23
-4.68279e-23
-7.02394e-23
3.5122e-23
1.70375e-27
7.02397e-23
4.6827e-23
1.17083e-23
-8.19489e-23
-1.1707e-23
7.02408e-23
3.51205e-23
7.02425e-23
8.19505e-23
-5.85342e-23
-5.8534e-23
-1.17066e-23
-4.68255e-23
3.512e-23
-1.17069e-23
-1.17075e-23
-2.34126e-23
-3.1502e-28
-1.17045e-23
1.17057e-23
-4.68287e-23
-7.02421e-23
-2.3413e-23
4.68277e-23
3.5121e-23
-3.51174e-23
4.6827e-23
1.17082e-23