/*--------------------------------*- C++ -*----------------------------------*\
  =========                 |
  \\      /  F ield         | OpenFOAM: The Open Source CFD Toolbox
   \\    /   O peration     | Website:  https://openfoam.org
    \\  /    A nd           | Version:  10
     \\/     M anipulation  |
\*---------------------------------------------------------------------------*/
FoamFile
{
    format      ascii;
    class       volScalarField;
    location    "0.002";
    object      alphas;
}
// * * * * * * * * * * * * * * * * * * * * * * * * * * * * * * * * * * * * * //

dimensions      [0 0 0 0 0 0 0];

internalField   nonuniform List<scalar> 
10000
(
4.46208e-28
-9.42849e-29
1.69538e-29
-1.41938e-28
2.68874e-28
1.79274e-28
-2.97023e-28
-3.02843e-28
3.80676e-28
1.01796e-28
-4.14275e-28
4.35441e-28
1.05453e-27
-1.39344e-28
1.31502e-28
-2.78036e-28
4.0333e-28
-3.43752e-28
-1.9648e-28
-9.77204e-29
1.14985e-28
-3.61445e-28
-1.73385e-28
3.84516e-30
2.67471e-28
-4.13737e-28
-1.49595e-28
5.55249e-28
3.96342e-28
8.04663e-29
-3.95965e-28
-1.37294e-28
5.97394e-28
1.05189e-28
3.9217e-28
1.57706e-28
-5.23058e-28
-2.50449e-28
3.37759e-28
3.00305e-28
-5.94295e-29
2.43219e-28
5.28241e-29
-3.91185e-28
3.12799e-28
-1.54829e-28
5.50452e-28
-6.70909e-28
1.37492e-28
1.05174e-28
6.70438e-28
7.47849e-29
-3.79476e-28
5.30728e-28
-5.40025e-28
-2.45723e-28
-1.94683e-28
2.90422e-28
-5.60683e-28
-2.95029e-28
-1.07601e-27
-3.68306e-28
2.35723e-30
2.87354e-28
1.09237e-27
1.09102e-28
1.13528e-27
-1.7439e-28
4.82661e-28
-4.07266e-29
3.7163e-28
4.96968e-29
1.40335e-27
-5.6007e-29
3.27685e-27
-1.93836e-29
7.11508e-28
8.28187e-29
-6.52214e-27
-3.74286e-29
-5.61547e-28
-1.87174e-29
-2.41307e-27
7.32784e-30
4.02041e-27
1.49916e-29
9.22996e-27
1.72426e-29
1.10415e-26
1.01103e-29
-3.57357e-27
-2.62985e-30
1.64734e-26
8.42527e-30
5.4399e-27
3.18422e-30
-1.76397e-30
-7.9831e-34
-3.28187e-37
-9.17657e-41
5.85348e-23
-2.34137e-23
3.90736e-28
1.17085e-23
7.02414e-23
1.17067e-23
-2.34118e-23
-3.51215e-23
4.68236e-23
2.34156e-23
-3.51163e-23
4.68204e-23
1.40477e-22
-3.51088e-23
-3.78174e-27
-3.51151e-23
5.8526e-23
-4.68175e-23
-1.17082e-23
-3.51228e-23
-3.15075e-27
-4.68185e-23
-2.34182e-23
-2.34176e-23
3.51154e-23
-4.68139e-23
-4.05422e-27
7.02263e-23
7.0246e-23
6.16527e-27
-2.34019e-23
-1.1714e-23
5.85156e-23
1.19562e-26
2.34064e-23
4.68362e-23
-3.51028e-23
-1.17151e-23
3.51033e-23
-2.79827e-28
1.17195e-23
2.34048e-23
3.51279e-23
-8.19352e-23
4.68055e-23
1.48267e-26
3.50972e-23
-7.0198e-23
-1.17373e-23
-1.17064e-23
4.68102e-23
3.51388e-23
-1.16907e-23
1.17034e-22
-2.33707e-23
-5.85396e-23
-1.17124e-23
3.50976e-23
-5.8502e-23
-2.34106e-23
-4.68184e-23
-4.6828e-23
-2.34451e-23
2.33984e-23
5.85301e-23
-2.33994e-23
8.19336e-23
-7.01849e-23
-1.17506e-23
1.59471e-26
3.51121e-23
-1.16987e-23
4.6803e-23
-3.50776e-23
5.84732e-23
-1.16601e-23
-2.08403e-26
1.17016e-22
-8.18237e-23
-8.19622e-23
-4.05836e-26
5.85011e-23
-4.67799e-23
5.84711e-23
5.85532e-23
4.68364e-23
1.17027e-22
9.36371e-23
1.28784e-22
-5.84708e-23
1.17149e-23
9.35902e-23
1.05333e-22
2.34616e-23
3.51163e-23
-1.16744e-23
-1.20735e-26
-4.84528e-30
-1.3463e-33
-2.5808e-37
-1.17072e-23
-2.34134e-23
3.51197e-23
4.68287e-23
-2.34142e-23
-2.3412e-23
-3.51209e-23
-3.51194e-23
-3.19056e-27
-5.85319e-23
-1.17088e-23
5.85311e-23
-3.51149e-23
-3.51209e-23
-2.34155e-23
1.17004e-23
-1.17013e-23
1.17078e-23
4.68228e-23
3.88133e-27
3.51167e-23
8.19446e-23
-3.51041e-23
-1.17158e-23
-5.85304e-23
-4.19669e-27
7.02295e-23
1.17185e-23
-3.51219e-23
-5.85256e-23
3.51119e-23
-7.0238e-23
-5.85296e-23
-3.51237e-23
1.16939e-23
9.36482e-23
-5.85044e-23
-1.17108e-23
-2.34155e-23
-2.34163e-23
5.85205e-23
3.51226e-23
1.07466e-26
-4.34255e-27
2.34147e-23
-1.16979e-23
1.17036e-23
4.68071e-23
-1.16845e-23
-3.51207e-23
-1.06525e-26
1.17155e-23
-2.34166e-23
1.05344e-22
-4.67935e-23
4.67911e-23
5.85312e-23
-2.33839e-23
2.34076e-23
1.16954e-23
1.17185e-23
-8.19365e-23
2.3396e-23
-3.51204e-23
-1.17008e-23
-4.48379e-27
4.68138e-23
2.34213e-23
2.34025e-23
-7.02089e-23
5.84858e-23
-4.67824e-23
-1.17289e-23
-5.85037e-23
5.85172e-23
1.17031e-23
-4.68138e-23
4.68132e-23
6.50498e-27
9.36281e-23
1.17162e-23
-8.19221e-23
-2.34235e-23
-5.85116e-23
3.50759e-23
5.85352e-23
-1.05296e-22
-5.85411e-23
8.19039e-23
-1.16679e-23
3.50908e-23
3.51288e-23
1.17032e-23
7.0227e-23
4.68281e-23
1.92892e-26
-5.63701e-27
-1.32716e-30
-2.37892e-34
-2.60781e-38
8.95408e-28
3.51201e-23
-7.02431e-23
3.51198e-23
3.51221e-23
4.68279e-23
1.17067e-23
5.85334e-23
1.64982e-27
2.34168e-23
4.68258e-23
-1.17065e-22
9.36488e-23
-2.34078e-23
-1.1707e-22
-1.17093e-23
9.36493e-23
3.08441e-27
-4.68217e-23
3.51124e-23
-9.3645e-23
9.36456e-23
2.34201e-23
2.34127e-23
-8.19418e-23
-6.34888e-27
-3.51183e-23
-2.34153e-23
-5.85379e-23
4.68202e-23
-1.17038e-23
-2.34117e-23
2.34098e-23
1.17118e-23
3.51153e-23
7.02383e-23
1.23055e-26
7.02364e-23
-6.55138e-28
3.51181e-23
3.45602e-27
-4.68222e-23
-1.17074e-23
-4.68266e-23
4.6818e-23
2.34234e-23
-2.96662e-27
7.02361e-23
-4.6813e-23
9.36308e-23
-1.28737e-22
-1.17245e-23
3.51112e-23
1.17093e-23
1.17138e-23
-2.34122e-23
-1.17107e-23
3.51183e-23
9.2908e-27
-8.19369e-23
8.19229e-23
2.34155e-23
-2.33953e-23
5.85198e-23
3.5115e-23
3.51268e-23
-8.19191e-23
-8.19672e-23
-2.34153e-23
-2.34214e-23
-3.51058e-23
-3.51221e-23
9.36266e-23
-1.16897e-23
7.02374e-23
3.51259e-23
-3.51071e-23
-3.51179e-23
3.50974e-23
-2.34147e-23
9.36458e-23
2.34107e-23
1.17235e-23
1.1686e-23
-1.16794e-23
3.51127e-23
3.51123e-23
2.34215e-23
-1.17033e-23
-4.33882e-28
-2.3417e-23
-5.85223e-23
4.68041e-23
4.68376e-23
-4.68225e-23
3.51166e-23
2.30343e-27
1.4442e-31
8.82067e-36
3.12931e-40
3.51199e-23
1.19374e-28
-7.02417e-23
2.34146e-23
-1.17062e-23
-3.51216e-23
2.29483e-27
3.51204e-23
3.51207e-23
1.17051e-23
1.21445e-27
4.6828e-23
2.34137e-23
2.45229e-27
-9.36556e-23
-3.51229e-23
-2.98131e-27
2.34144e-23
2.34135e-23
4.68269e-23
-5.59484e-28
2.34107e-23
-4.6823e-23
-1.44522e-27
3.51191e-23
-4.68255e-23
-3.51164e-23
-1.17106e-23
-9.36548e-23
2.34106e-23
-2.34152e-23
-2.3417e-23
-4.68227e-23
-4.68274e-23
2.34093e-23
-1.17085e-23
3.51185e-23
7.24651e-27
1.17096e-23
9.36486e-23
7.02426e-23
7.80059e-27
1.17108e-23
8.19411e-23
4.68268e-23
-4.68175e-23
3.51089e-23
-3.51116e-23
-2.34132e-23
-1.65387e-27
-5.10158e-27
1.17082e-23
5.85376e-23
-9.63116e-28
-3.51169e-23
-2.34126e-23
-4.68254e-23
-7.36687e-27
7.02359e-23
4.68335e-23
-7.02318e-23
5.85218e-23
4.68295e-23
3.87797e-27
-4.682e-23
-3.51255e-23
1.16947e-23
-7.02239e-23
-4.72198e-27
-1.05357e-22
-1.1718e-23
1.0535e-22
2.34236e-23
8.19451e-23
5.85362e-23
-1.05344e-22
-3.51325e-23
-1.17127e-23
-4.68148e-23
-2.34214e-23
1.1708e-23
1.17056e-22
2.34392e-23
-1.2668e-26
1.17129e-23
-2.34095e-23
1.17018e-23
7.02365e-23
-1.16991e-23
4.68283e-23
-4.68249e-23
7.02344e-23
1.17123e-23
-2.34114e-23
4.17313e-27
1.17076e-23
8.67442e-32
4.50033e-36
1.4372e-40
5.53831e-45
-7.02419e-23
-3.51218e-23
-2.34145e-23
4.68268e-23
3.51199e-23
-4.68251e-23
9.36546e-23
2.34143e-23
5.49556e-28
2.34158e-23
-1.17071e-23
1.05363e-22
-4.68268e-23
1.05358e-22
-5.85309e-23
-7.02419e-23
-3.512e-23
-1.1709e-23
-3.51196e-23
2.34125e-23
-7.02375e-23
3.51191e-23
-1.80662e-27
-1.17044e-23
-1.17061e-23
2.34101e-23
2.34123e-23
-8.1945e-23
3.51174e-23
-4.68249e-23
-8.19476e-23
-2.34149e-23
5.85344e-23
-2.34143e-23
2.34149e-23
2.34138e-23
-9.3653e-23
4.68229e-23
1.28771e-22
-3.51194e-23
2.3414e-23
5.85294e-23
4.68286e-23
3.51252e-23
3.51175e-23
-3.51123e-23
2.34091e-23
7.02338e-23
1.17112e-23
-3.51206e-23
6.3458e-28
-3.51221e-23
4.6821e-23
1.17126e-23
-1.17051e-23
-1.17102e-23
1.17087e-23
-3.51185e-23
1.17042e-23
-3.51191e-23
-3.51209e-23
2.34119e-23
2.3414e-23
-2.34082e-23
1.17012e-23
-9.36487e-23
-2.34155e-23
-2.34149e-23
3.51167e-23
1.28772e-22
1.17147e-23
1.9946e-27
3.51179e-23
-8.19431e-23
3.51151e-23
-1.17053e-23
-2.34109e-23
-2.34166e-23
4.68222e-23
3.51244e-23
-1.1709e-23
-1.02046e-28
-2.62048e-27
-3.51165e-23
-1.17148e-23
2.3417e-23
7.02493e-23
1.52177e-22
9.3664e-23
3.51173e-23
-1.17013e-23
1.17075e-23
3.51157e-23
-2.34091e-23
1.05355e-22
7.0244e-23
2.22737e-27
5.21001e-32
1.21404e-36
1.50313e-41
1.22779e-47
5.41331e-28
-3.51211e-23
4.85356e-28
-2.14095e-28
3.51204e-23
2.3415e-23
-2.34139e-23
2.34142e-23
1.1707e-23
4.68276e-23
2.34132e-23
-2.34128e-23
-3.51206e-23
3.51201e-23
1.17075e-23
1.17063e-23
-7.02408e-23
2.34131e-23
-1.17069e-23
-6.32071e-28
-2.87999e-28
5.85351e-23
1.17086e-23
1.17074e-23
-4.68268e-23
-7.02426e-23
-4.68284e-23
3.512e-23
-1.17061e-23
-3.51202e-23
4.68264e-23
-2.34134e-23
3.0315e-28
7.024e-23
5.85349e-23
7.02424e-23
-3.51197e-23
-1.05362e-22
-7.02407e-23
-3.51214e-23
-2.34134e-23
-4.68267e-23
2.34127e-23
2.34139e-23
1.17066e-23
2.34149e-23
-5.85332e-23
-3.51223e-23
-2.41967e-28
-1.17071e-23
-2.34141e-23
5.85362e-23
1.17087e-23
-3.37247e-27
-3.5118e-23
2.34126e-23
5.85349e-23
5.85343e-23
-9.36538e-23
3.51203e-23
7.02396e-23
1.17105e-23
3.51194e-23
1.05804e-28
4.6828e-23
4.68283e-23
-1.17074e-23
3.01313e-29
5.68094e-29
7.79486e-29
1.33625e-33
2.34131e-23
-2.34135e-23
1.17069e-23
1.45055e-29
-1.17071e-23
-1.17071e-23
-3.51214e-23
1.17072e-23
-1.17071e-23
-9.98045e-30
-2.17868e-35
-1.1415e-41
-1.35653e-47
3.63156e-53
6.96895e-52
6.27753e-29
4.18767e-34
6.36791e-29
6.91843e-34
4.09451e-29
5.07835e-34
-7.16635e-29
-7.93825e-34
1.76791e-28
2.49636e-33
1.25823e-37
1.0576e-42
2.57954e-47
1.61351e-42
-2.55977e-42
2.77292e-42
5.70717e-43
1.06407e-42
-1.08525e-42
-1.33563e-42
5.29236e-43
-1.30793e-42
-2.45637e-42
2.86127e-42
1.3101e-42
-8.07833e-43
-7.48509e-42
1.57398e-42
3.44082e-42
-7.80582e-44
-1.2183e-43
-1.52554e-42
-3.95248e-42
-3.71167e-42
2.02245e-42
1.31542e-42
1.90574e-43
6.79668e-42
-2.78864e-42
2.68508e-42
8.2144e-43
5.56074e-42
1.98883e-42
-9.39892e-43
-1.04874e-42
-1.08469e-42
8.02345e-43
2.16785e-43
-6.63518e-43
1.88636e-44
-1.52786e-42
-1.57541e-42
-4.25872e-43
-2.07612e-42
1.03733e-42
1.12215e-42
-3.13191e-42
-2.9162e-42
-4.77394e-42
3.59394e-42
-3.25439e-42
-1.84949e-42
5.18806e-43
8.87078e-43
4.42866e-43
-8.03321e-43
-1.93597e-42
1.0831e-43
1.20257e-42
-3.82738e-43
-1.86526e-42
9.27086e-43
1.59209e-42
-1.5075e-42
1.36975e-42
1.35172e-42
4.58307e-43
6.05013e-42
-6.59973e-44
-2.36456e-42
2.1089e-42
5.80936e-42
-9.58447e-44
1.55417e-43
-8.75202e-44
1.38652e-42
-1.61042e-44
4.07601e-42
-5.88113e-44
-1.94947e-44
-8.68021e-44
-1.41014e-46
1.34836e-46
-4.00563e-46
-2.61065e-46
3.62845e-45
1.63744e-47
7.33726e-47
1.77188e-47
7.03147e-47
1.28043e-48
7.03871e-47
3.54849e-48
-2.63746e-47
-3.25343e-48
1.06886e-47
-2.36252e-53
-1.93957e-52
1.08672e-52
-1.5111e-59
6.77513e-54
1.1072e-58
1.62405e-59
1.66303e-37
-3.27185e-37
2.91465e-37
2.35599e-38
1.15561e-37
-1.29739e-37
-2.24975e-37
7.35969e-38
-1.54079e-37
-2.76473e-37
3.05107e-37
1.7926e-37
-8.23023e-38
-8.08307e-37
1.75078e-37
3.12414e-37
-6.80679e-39
-2.27556e-39
-2.34458e-37
-4.15215e-37
-4.51529e-37
2.29095e-37
1.53308e-37
4.13063e-38
6.84117e-37
-3.22713e-37
1.89634e-37
1.1611e-37
6.30455e-37
2.58441e-37
-9.0971e-39
-1.29908e-37
-1.31676e-37
1.1214e-37
8.56657e-38
-1.26808e-37
-3.41351e-39
-1.9463e-37
-1.91019e-37
-5.59524e-38
-2.48215e-37
9.10364e-38
5.21532e-38
-4.39613e-37
-3.03344e-37
-5.33746e-37
4.17047e-37
-3.66453e-37
-1.63949e-37
7.24884e-38
1.21718e-37
4.87816e-38
3.42158e-39
-1.8267e-37
-1.11474e-39
2.21908e-37
-5.73624e-38
-2.81272e-37
1.0007e-37
1.96733e-37
-1.15525e-37
1.78705e-37
1.63084e-37
3.3974e-38
5.90971e-37
-1.13e-38
-2.60942e-37
3.41723e-37
6.03243e-37
-3.61627e-38
2.80599e-38
-1.95266e-38
9.53864e-38
-4.07968e-39
3.5369e-37
-1.87834e-38
-2.03833e-39
-2.60022e-38
-3.94781e-41
2.26056e-40
-3.25265e-40
-3.37054e-40
1.62847e-39
4.25463e-42
-6.48255e-41
4.77394e-42
6.41299e-42
5.28095e-43
5.02857e-42
9.37104e-43
-2.59023e-42
-1.08401e-42
1.41338e-42
-2.52195e-46
-1.52691e-46
2.35318e-46
-2.62834e-53
-5.02946e-62
-1.26532e-67
-6.73972e-74
1.33831e-32
-3.32592e-32
2.22004e-32
-2.20604e-33
9.16949e-33
-1.10734e-32
-2.97376e-32
6.43124e-33
-1.37459e-32
-2.56393e-32
2.38209e-32
2.02161e-32
-4.34425e-33
-6.62537e-32
1.46778e-32
1.74366e-32
9.5808e-35
2.79169e-33
-2.66476e-32
-3.1979e-32
-4.69833e-32
2.11035e-32
1.31193e-32
6.18057e-33
5.28757e-32
-2.5302e-32
4.72151e-33
1.29413e-32
5.51429e-32
2.57792e-32
9.78662e-33
-1.70858e-32
-1.22596e-32
1.17035e-32
1.42166e-32
-1.83112e-32
-1.15476e-35
-1.93671e-32
-2.2075e-32
-3.60098e-33
-2.3715e-32
3.33096e-33
-2.95513e-33
-4.54835e-32
-2.5238e-32
-4.64649e-32
4.06692e-32
-2.91351e-32
-8.29696e-33
6.98915e-33
1.50514e-32
1.96982e-33
7.67341e-33
-9.82433e-33
-9.14721e-34
2.92115e-32
-7.14923e-33
-3.21249e-32
8.33325e-33
1.57799e-32
-5.20902e-33
1.58904e-32
1.4543e-32
-5.90815e-34
4.4941e-32
-1.5042e-33
-2.22774e-32
4.04197e-32
4.8193e-32
-7.53195e-33
4.36065e-33
-2.54527e-33
2.65156e-33
-8.0007e-34
2.26413e-32
-3.76484e-33
-1.55571e-34
-4.72985e-33
-4.07507e-35
2.35962e-34
-2.77514e-34
-2.17555e-34
6.96346e-34
6.60409e-37
-1.00048e-34
7.43361e-37
5.57781e-37
1.09644e-37
3.03738e-37
1.47067e-37
-2.41894e-37
-1.98048e-37
1.82984e-37
-4.46294e-40
-1.30707e-40
2.79103e-40
-4.24789e-47
-1.28782e-57
-1.25975e-63
-3.43613e-70
9.79899e-28
-2.36398e-27
1.06394e-27
-4.30184e-28
5.07487e-28
-5.11746e-28
-2.80525e-27
2.41878e-28
-8.19384e-28
-1.80049e-27
1.07327e-27
1.75783e-27
2.08115e-28
-3.42595e-27
8.26308e-28
2.25984e-28
7.11661e-29
7.04342e-28
-2.11068e-27
-1.51139e-27
-3.98897e-27
1.51921e-27
7.49962e-28
4.81007e-28
3.13051e-27
-8.86462e-28
-5.73919e-28
1.04071e-27
3.39471e-27
1.69217e-27
1.49447e-27
-2.13713e-27
-7.74643e-28
7.89246e-28
1.50645e-27
-1.80143e-27
1.66349e-28
-1.46506e-27
-2.00303e-27
1.96849e-28
-1.57155e-27
-3.47201e-28
-8.53526e-28
-3.04999e-27
-1.73272e-27
-3.02648e-27
3.08457e-27
-1.11835e-27
1.03101e-28
5.77344e-28
1.49984e-27
-1.7147e-28
7.41461e-28
-1.3918e-28
-4.60746e-29
2.46681e-27
-7.74084e-28
-2.31246e-27
6.0447e-28
4.5001e-28
1.29597e-28
7.29336e-28
6.75949e-28
-5.65833e-28
2.39851e-27
-7.95936e-29
-1.21479e-27
3.01994e-27
2.54156e-27
-9.56249e-28
6.14698e-28
-1.35719e-28
-2.53823e-28
-1.52559e-28
8.26387e-28
-4.29258e-28
-6.62879e-30
-4.83073e-28
-4.31935e-29
1.49343e-28
-1.87031e-28
-8.42355e-29
2.31123e-28
6.71853e-32
-7.04222e-29
7.98213e-32
4.07593e-32
1.42152e-32
1.10964e-32
1.73581e-32
-1.77221e-32
-2.30829e-32
2.01021e-32
-4.28701e-34
-8.7809e-35
2.12711e-34
-6.08152e-41
-3.01967e-53
-1.25149e-59
-1.49374e-66
7.02419e-23
-7.0238e-23
2.34149e-23
-2.34146e-23
2.3417e-23
3.20618e-27
-1.40486e-22
4.5477e-28
-2.34126e-23
-7.02421e-23
-1.34522e-28
9.36553e-23
4.68324e-23
-4.68259e-23
2.34112e-23
-2.34116e-23
-1.6636e-27
7.02391e-23
-9.36537e-23
-2.34133e-23
-2.10725e-22
7.02423e-23
2.34158e-23
2.50213e-27
1.40481e-22
2.3414e-23
-4.68261e-23
4.68252e-23
1.17067e-22
4.68293e-23
9.3655e-23
-1.63897e-22
-2.34142e-23
2.3414e-23
9.36542e-23
-9.36568e-23
2.34119e-23
-7.02383e-23
-9.36522e-23
4.68292e-23
-4.68311e-23
-4.68241e-23
-7.02448e-23
-1.17068e-22
-9.36551e-23
-1.17065e-22
1.17069e-22
9.36621e-23
4.68243e-23
9.36593e-23
9.36559e-23
4.68278e-23
-2.44096e-28
4.68286e-23
2.34136e-23
1.17067e-22
-9.36565e-23
5.13343e-28
4.68256e-23
-1.24242e-27
4.683e-23
-7.01947e-28
-2.34143e-23
-7.02439e-23
4.68276e-23
2.34166e-23
4.12441e-27
1.1707e-22
2.34109e-23
-9.36544e-23
7.02437e-23
-1.96862e-27
-2.34118e-23
-2.34163e-23
-1.60196e-27
-2.34121e-23
-1.0527e-27
-2.34173e-23
-2.34195e-23
4.68301e-23
-7.0245e-23
-2.34128e-23
4.68299e-23
4.33865e-27
-2.34163e-23
6.06626e-27
2.21625e-27
1.01573e-27
-1.37997e-28
1.53699e-27
-6.49142e-28
-1.41289e-27
1.56171e-27
-2.40428e-28
-3.21125e-29
1.01111e-28
-6.49725e-35
-4.09651e-49
-7.1714e-56
-2.30557e-63
7.95147e-28
1.17072e-22
2.34136e-23
1.05307e-27
9.36542e-23
1.17073e-22
-9.36538e-23
2.34111e-23
-1.45025e-28
-7.02415e-23
9.36576e-23
-7.02408e-23
1.17068e-22
4.61623e-28
-2.34136e-23
-8.18559e-27
-9.36562e-23
-1.17067e-22
4.68287e-23
-2.34089e-23
-2.34123e-23
2.34159e-23
9.36558e-23
1.17068e-22
-4.68308e-23
1.84694e-27
2.34084e-23
-9.36562e-23
-7.02441e-23
9.36542e-23
2.34164e-23
4.68302e-23
-7.02481e-23
2.34074e-23
-9.36555e-23
-1.17068e-22
-7.02386e-23
9.36519e-23
7.02429e-23
1.40485e-22
-1.17063e-22
2.34135e-22
-7.02424e-23
-4.68269e-23
2.34146e-23
-2.34116e-23
-1.33417e-27
1.17069e-22
-7.02365e-23
1.40483e-22
-1.46712e-27
-9.36526e-23
-4.68306e-23
4.68291e-23
-1.17069e-22
4.3673e-27
-2.20075e-29
-1.1707e-22
-9.36537e-23
-1.084e-29
4.68254e-23
-2.34178e-23
7.02391e-23
-1.17065e-22
9.36564e-23
2.34095e-23
2.34185e-23
2.34098e-23
-2.34118e-23
2.34096e-23
9.36534e-23
-1.40484e-22
1.40478e-22
-2.34124e-23
-4.68288e-23
4.68282e-23
-4.68278e-23
-1.1707e-22
-1.40478e-22
-6.52183e-27
-4.68278e-23
7.02427e-23
7.02392e-23
1.40477e-22
-9.36478e-23
2.80964e-22
7.02379e-23
2.3413e-23
-2.34153e-23
9.36565e-23
2.34148e-23
5.90036e-27
4.68248e-23
-4.68276e-23
-2.39578e-27
2.34139e-23
-3.77945e-29
-5.34763e-46
-1.65827e-53
-3.32821e-63
-3.80988e-27
4.68254e-23
-4.68294e-23
7.0243e-23
7.02469e-23
2.10723e-22
2.34131e-23
-7.0241e-23
-7.0246e-23
-2.34149e-23
-5.19317e-27
4.6826e-23
2.34124e-23
2.34122e-23
-1.1707e-22
-2.10721e-22
4.68306e-23
4.68272e-23
4.68265e-23
1.63892e-22
4.68282e-23
7.02428e-23
2.34086e-23
-2.34145e-23
-7.02407e-23
2.34139e-23
-9.36517e-23
9.36639e-23
-7.02449e-23
1.15153e-27
9.36528e-23
1.17065e-22
-3.04381e-22
-2.34139e-22
1.17071e-22
2.34122e-23
4.68287e-23
-1.40481e-22
1.17072e-22
7.02432e-23
9.36549e-23
-9.36551e-23
-9.36547e-23
2.34122e-23
2.34137e-23
2.57554e-22
2.3415e-23
9.36493e-23
-2.34181e-23
2.34163e-23
2.34108e-23
1.17067e-22
-9.36573e-23
7.02438e-23
4.68313e-23
4.68235e-23
9.36552e-23
-1.17074e-22
2.34147e-23
4.68301e-23
2.34105e-23
-2.57558e-22
-4.68177e-23
1.87312e-22
7.02387e-23
-1.40476e-22
1.40477e-22
-1.40479e-22
9.36518e-23
-1.639e-22
-4.68248e-23
-2.34168e-23
-1.17066e-22
-9.36535e-23
-1.50451e-28
7.02431e-23
-1.61968e-27
3.57409e-27
-2.34153e-23
-4.68248e-23
-7.02383e-23
7.0242e-23
-2.34138e-22
-1.17068e-22
1.40481e-22
-2.3416e-23
-1.40482e-22
-2.34179e-23
-7.0246e-23
5.1619e-28
-2.34121e-23
1.63897e-22
-7.02413e-23
4.68268e-23
-1.63897e-22
2.34146e-23
4.6856e-29
1.61545e-54
1.39146e-62
4.1403e-69
-1.40483e-22
-2.34165e-23
-4.68286e-23
4.68252e-23
1.17067e-22
7.69412e-28
-7.02427e-23
2.34162e-23
-9.3653e-23
-4.68249e-23
-1.87309e-22
-1.40482e-22
-2.34109e-23
-7.02386e-23
7.02411e-23
1.63896e-22
4.68288e-23
-7.02428e-23
-1.17069e-22
2.95206e-27
-4.68283e-23
1.17066e-22
-1.63894e-22
2.34152e-23
-2.34097e-23
-1.59677e-27
7.02409e-23
2.3414e-22
-1.40481e-22
-2.34177e-23
-1.17068e-22
-1.17068e-22
-2.34209e-23
-7.02414e-23
-1.44075e-27
-4.68254e-23
4.68219e-23
4.68277e-23
2.34132e-23
1.63898e-22
2.34138e-23
-7.02407e-23
4.6828e-23
2.75536e-27
-2.34145e-23
9.36553e-23
9.36546e-23
-1.63899e-22
-1.17065e-22
4.68258e-23
-2.10725e-22
2.91344e-27
-9.3653e-23
4.68237e-23
7.02367e-23
-7.02397e-23
-7.02456e-23
-9.36522e-23
-4.68327e-23
-9.36542e-23
-2.10726e-22
-1.87304e-22
2.80962e-22
-3.53564e-27
-9.36541e-23
3.27792e-22
-2.34166e-23
1.63898e-22
-4.68252e-23
-2.34137e-22
9.365e-23
-1.40484e-22
-1.9166e-27
2.10727e-22
-2.34098e-23
1.87313e-22
1.40486e-22
3.50698e-27
7.02436e-23
-3.8867e-27
-2.34116e-23
-1.13409e-27
4.68257e-23
2.3417e-23
2.34135e-23
-7.02398e-23
-2.34183e-23
-1.40481e-22
-2.34137e-22
9.36537e-23
4.68284e-23
1.40486e-22
-7.02426e-23
-9.08833e-28
2.34132e-23
-7.02411e-23
-6.3815e-29
2.69321e-48
2.10768e-56
4.7052e-64
3.12412e-28
-1.17069e-22
7.02423e-23
-1.63898e-22
-2.34157e-23
-2.34147e-23
-2.34149e-23
-7.02427e-23
7.02433e-23
1.40484e-22
-4.18918e-27
7.02394e-23
9.36519e-23
7.02416e-23
-1.17071e-22
-4.68267e-23
7.02444e-23
9.36577e-23
9.36551e-23
4.68277e-23
9.36569e-23
-1.1707e-22
9.36565e-23
2.34142e-23
9.36536e-23
-7.02412e-23
-2.3415e-23
1.63895e-22
-2.34139e-23
-1.17072e-22
-2.34126e-23
-4.68285e-23
-3.0438e-22
-2.10726e-22
-7.02407e-23
1.17067e-22
-1.40481e-22
1.40485e-22
1.40484e-22
1.47797e-27
7.02444e-23
2.34106e-23
-9.3656e-23
1.40483e-22
7.02429e-23
-4.68274e-23
-2.34141e-23
-1.87309e-22
1.17066e-22
2.34153e-23
-2.34128e-23
1.17068e-22
4.68264e-23
-9.36556e-23
-1.17069e-22
7.02424e-23
-9.36536e-23
-7.02413e-23
1.54598e-27
9.36536e-23
1.98519e-27
4.68269e-23
2.34142e-23
-7.02418e-23
-9.36556e-23
-4.6829e-23
-1.8731e-22
2.34138e-23
1.17067e-22
-4.68275e-23
-4.68279e-23
-7.024e-23
-1.17068e-22
9.36555e-23
9.36555e-23
1.40484e-22
2.34145e-23
7.02395e-23
2.3411e-23
-9.3653e-23
-7.02451e-23
7.02405e-23
-1.40482e-22
1.40482e-22
4.68288e-23
1.17069e-22
-9.36534e-23
1.17067e-22
-2.34119e-23
2.34148e-23
7.02425e-23
9.36541e-23
-7.02423e-23
9.14256e-28
-4.6827e-23
1.1707e-22
-2.34142e-23
3.72492e-42
4.08194e-50
1.03763e-57
2.05845e-28
-2.3413e-23
-4.68273e-23
-9.36537e-23
8.9489e-28
7.02442e-23
-1.17071e-22
9.36537e-23
1.40484e-22
2.34142e-23
-1.17069e-22
-2.34126e-23
-1.17072e-22
4.68304e-23
-4.68224e-23
2.34138e-23
1.17069e-22
-2.34154e-23
-7.02409e-23
4.68311e-23
2.34158e-23
-2.3412e-23
9.3667e-28
1.1707e-22
2.34109e-23
-4.68285e-23
-7.78431e-28
-1.17069e-22
2.34138e-23
-1.63897e-22
-3.13083e-27
9.36579e-23
-1.17068e-22
1.52998e-27
1.40486e-22
5.46153e-27
-1.17071e-22
2.34158e-23
4.68265e-23
7.02418e-23
4.68288e-23
-1.17067e-22
-2.34156e-23
4.68269e-23
-9.36531e-23
-2.34124e-23
2.34178e-23
-4.68271e-23
-7.02386e-23
-2.34171e-23
2.34119e-23
-4.68255e-23
-2.34158e-23
-1.40483e-22
-2.34144e-23
-2.34126e-23
4.68289e-23
1.17073e-22
2.34145e-23
2.34122e-23
8.60306e-28
4.6827e-23
-2.82353e-27
-4.68248e-23
-6.0926e-30
-1.08297e-27
1.11465e-27
3.53877e-27
-1.44691e-27
2.34123e-23
-4.68289e-23
2.74541e-28
4.6828e-23
-6.48977e-28
-1.94602e-27
2.34108e-23
1.34897e-27
-3.02123e-29
-4.68295e-23
2.7622e-27
-2.09596e-27
-7.35103e-28
-1.45494e-27
-1.87084e-27
-1.55873e-27
1.18407e-27
-4.47796e-28
-1.25188e-28
-1.31969e-27
-3.27039e-27
1.92598e-27
1.06973e-28
1.09704e-27
1.35866e-28
-1.50438e-27
1.32295e-27
6.79916e-29
4.07076e-36
6.34168e-44
2.00409e-51
-9.36558e-23
4.68293e-23
-2.34147e-23
1.4048e-22
-2.34162e-23
1.639e-22
-7.02379e-23
-1.639e-22
1.17069e-22
9.36577e-23
-2.34156e-23
4.68222e-23
-1.40482e-22
9.36559e-23
1.63896e-22
2.34129e-23
2.34158e-23
-2.34122e-23
-7.02465e-23
1.17072e-22
4.68251e-23
4.68253e-23
7.02409e-23
-4.68265e-23
-1.17068e-22
5.56938e-28
-1.40483e-22
-7.02435e-23
-4.68292e-23
9.36557e-23
3.09669e-27
1.63901e-22
2.34142e-23
1.40485e-22
-5.18052e-27
1.63892e-22
2.34158e-23
9.36519e-23
2.34164e-23
-4.68284e-23
7.02411e-23
1.17068e-22
2.34167e-23
-1.63901e-22
1.63898e-22
9.36551e-23
4.68222e-23
-4.68296e-23
1.40486e-22
-9.36555e-23
-4.68232e-23
-2.26716e-27
-9.36546e-23
2.34091e-23
-2.34133e-23
1.17073e-22
4.68256e-23
1.63895e-22
2.34203e-23
-2.34154e-23
-2.34148e-23
-2.34141e-23
-4.68252e-23
4.68223e-23
2.34146e-23
-2.34165e-23
1.1707e-22
1.17067e-22
-4.68276e-23
-1.17069e-22
2.34167e-23
2.3414e-23
7.02413e-23
-2.34129e-23
-4.68279e-23
-9.36541e-23
1.17069e-22
-2.34136e-23
-4.68304e-23
9.36516e-23
-9.36577e-23
-4.68278e-23
-7.02404e-23
-7.02427e-23
-2.34111e-23
2.34132e-23
-2.98871e-28
2.34109e-23
-9.36556e-23
-9.36526e-23
4.6824e-23
-2.34129e-23
4.68274e-23
7.02426e-23
-1.1707e-22
9.36558e-23
2.34142e-23
2.28187e-30
7.57939e-38
2.33018e-45
2.34122e-23
4.68271e-23
-2.34169e-23
-1.63896e-22
-9.36558e-23
2.34156e-23
1.63896e-22
-9.36559e-23
-9.3655e-23
-1.9117e-27
-9.36542e-23
-2.10724e-22
7.02422e-23
6.24378e-28
4.68312e-23
-2.34145e-23
9.36564e-23
7.02369e-23
-4.68297e-23
1.17067e-22
-4.68249e-23
-9.36567e-23
-4.68289e-23
2.34124e-23
-2.13888e-27
-2.34161e-23
2.34122e-23
-2.34155e-23
-2.80984e-28
-4.68261e-23
7.02425e-23
9.36538e-23
4.68278e-23
4.68256e-23
-1.17067e-22
-1.40486e-22
4.6828e-23
-9.36567e-23
6.55466e-31
1.10466e-27
-4.6829e-23
2.34146e-23
7.77462e-28
-2.10725e-22
-2.34128e-23
9.57612e-28
-1.17071e-22
-2.34142e-23
7.02404e-23
2.34145e-23
1.40481e-22
-1.12638e-27
9.36595e-23
-9.36529e-23
-7.27406e-28
2.10725e-22
-2.34126e-23
-4.68282e-23
1.87307e-22
-1.17067e-22
4.68279e-23
2.3413e-23
-2.34148e-23
-1.40483e-22
9.36586e-23
-1.40482e-22
-4.6828e-23
-2.34144e-23
2.3417e-23
7.02448e-23
1.63898e-22
-2.34162e-23
1.09762e-27
7.02428e-23
-9.36563e-23
-1.40486e-22
7.22245e-28
7.02417e-23
-1.63897e-22
-4.68268e-23
-7.02396e-23
-3.6707e-28
-1.49718e-27
-1.17069e-22
-2.34162e-23
7.02427e-23
-4.6828e-23
-2.10725e-22
2.34134e-23
4.68277e-23
-1.63897e-22
7.02413e-23
-1.2969e-29
-2.34142e-23
-2.29814e-30
-9.22304e-38
1.0583e-39
3.4632e-46
4.86612e-53
5.32422e-60
-1.84552e-27
-4.68301e-23
-5.71399e-28
2.34122e-23
-4.68248e-23
7.02404e-23
2.34169e-23
-2.34108e-23
2.34161e-23
3.4097e-27
4.68267e-23
-2.34117e-23
7.02434e-23
4.68228e-23
7.02433e-23
-7.02423e-23
2.34076e-23
-1.63894e-22
-9.36533e-23
-9.36544e-23
1.40481e-22
-2.34121e-23
-4.68269e-23
-2.34163e-23
-4.68281e-23
4.68315e-23
-4.68279e-23
-4.68255e-23
-8.06202e-28
7.70862e-28
9.36546e-23
-2.34121e-23
-4.68259e-23
-4.68255e-23
7.02429e-23
-7.02395e-23
9.3654e-23
-9.36557e-23
7.02392e-23
4.68241e-23
-2.34128e-23
2.34147e-23
7.02407e-23
1.55518e-27
1.1707e-22
7.02382e-23
-1.63896e-22
-2.34171e-23
-5.56404e-27
-2.34126e-23
-2.34142e-23
-4.68283e-23
1.63898e-22
9.36588e-23
-2.34145e-23
2.3414e-23
2.34186e-23
-7.02394e-23
4.68276e-23
2.34098e-23
2.34137e-23
-4.68266e-23
-7.02465e-23
2.34141e-23
9.36537e-23
-2.49093e-27
1.26429e-27
-7.02435e-23
9.36559e-23
1.17072e-22
-4.68276e-23
-7.02445e-23
-7.02478e-23
4.68326e-23
-2.34136e-23
-4.68287e-23
-2.34159e-23
-2.88763e-28
-2.3415e-23
-2.34168e-23
-2.34153e-23
-2.34151e-23
-2.34129e-23
2.51672e-27
-2.34145e-23
-1.28172e-27
-9.71771e-28
1.78971e-27
-2.32933e-27
-4.02947e-28
7.20239e-28
-6.70187e-33
5.55107e-33
1.03471e-32
1.06894e-32
4.68316e-33
4.94645e-34
1.63308e-40
2.43988e-47
2.67807e-54
-1.40485e-22
-9.36546e-23
-2.34114e-23
-1.40481e-22
1.40482e-22
-9.36559e-23
9.36556e-23
2.34103e-23
7.02403e-23
1.17071e-22
-9.36584e-23
7.0243e-23
1.63897e-22
-1.87312e-22
9.36555e-23
-7.02421e-23
-2.57551e-22
-8.20355e-28
2.34158e-23
-9.36563e-23
-2.34143e-22
-2.48121e-27
2.34143e-23
-2.34091e-23
2.34142e-23
3.18999e-27
-4.68278e-23
-2.34157e-23
2.01802e-27
4.68257e-23
-2.34136e-23
1.63897e-22
-2.75057e-27
2.34112e-23
4.68287e-23
4.68285e-23
-4.68255e-23
-4.68302e-23
-1.63895e-22
-1.63896e-22
2.34134e-23
-2.34157e-23
-7.02438e-23
2.34109e-23
4.68273e-23
-1.40483e-22
4.68268e-23
-4.68262e-23
-2.57553e-22
2.34132e-23
-4.68271e-23
-4.68272e-23
1.17072e-22
4.68272e-23
4.68327e-23
4.68266e-23
2.34137e-22
4.68287e-23
-9.36564e-23
-1.40484e-22
2.34165e-23
2.34143e-23
-1.1707e-22
7.02441e-23
-4.6829e-23
-7.02418e-23
1.44294e-27
-1.17071e-22
2.34114e-23
1.63892e-22
9.36546e-23
-1.63895e-22
-3.04379e-22
1.63893e-22
7.02462e-23
-4.68265e-23
-4.68277e-23
-2.34116e-23
-3.02836e-28
-4.68269e-23
6.92086e-30
4.68255e-23
4.68338e-23
1.17068e-22
-2.34128e-23
-4.68267e-23
-7.02397e-23
1.63897e-22
-7.02378e-23
-2.34093e-23
4.683e-23
-1.72894e-29
4.45729e-28
7.75433e-28
3.58503e-28
4.15445e-28
1.5274e-28
4.92752e-35
7.41016e-42
7.92881e-49
-1.40482e-22
-5.99322e-28
9.36578e-23
9.36558e-23
-7.02409e-23
-2.08912e-27
9.36622e-23
-7.02383e-23
-2.34169e-23
9.36519e-23
-1.17065e-22
-5.55798e-27
-7.02407e-23
-4.68221e-23
4.68265e-23
-2.34172e-23
-4.68312e-23
2.34127e-23
9.36615e-23
8.81247e-28
-2.10725e-22
-7.02364e-23
-1.6512e-27
1.87312e-22
-2.34088e-23
1.87308e-22
-2.34144e-23
2.34178e-23
7.02383e-23
-1.17068e-22
-2.34181e-23
-2.34171e-23
4.6824e-23
-4.68291e-23
2.34144e-23
-2.34107e-23
9.36567e-23
-1.40481e-22
7.02378e-23
-7.02399e-23
-2.34176e-23
-1.17066e-22
-1.42603e-27
-7.02396e-23
-9.36558e-23
7.02442e-23
-2.34142e-23
-4.68286e-23
-4.68287e-23
7.02476e-23
4.68311e-23
4.68273e-23
4.6828e-23
7.02438e-23
1.17069e-22
-1.17067e-22
-2.34206e-23
2.34196e-23
7.02426e-23
-4.68287e-23
7.02409e-23
-7.02379e-23
-1.17068e-22
4.68262e-23
-9.36563e-23
-1.17071e-22
9.36564e-23
4.68302e-23
-7.02469e-23
-2.3414e-22
-2.17243e-28
7.02416e-23
7.02446e-23
2.34135e-23
-3.47182e-28
-2.34132e-23
2.36188e-27
1.17066e-22
-4.68251e-23
-2.34133e-23
-2.34161e-23
-1.8731e-22
2.34136e-22
-7.11833e-28
-4.6831e-23
-1.27374e-27
1.40484e-22
2.3811e-27
1.63897e-22
1.87309e-22
1.17069e-22
4.6829e-23
2.34139e-23
4.68278e-23
-4.6829e-23
4.68282e-23
2.34142e-23
7.20727e-30
1.05037e-36
1.06685e-43
7.02425e-23
-9.31601e-28
7.02393e-23
1.40486e-22
4.68261e-23
-9.36573e-23
3.04378e-22
1.87313e-22
-9.36532e-23
-9.36568e-23
1.63895e-22
-1.4048e-22
-2.4585e-27
9.36541e-23
-2.34161e-23
-7.02383e-23
-2.34127e-23
2.28573e-27
2.57547e-22
4.68273e-23
-2.34168e-23
1.40482e-22
-1.17068e-22
4.68298e-23
1.40481e-22
-7.02407e-23
2.34142e-23
9.36541e-23
-7.02404e-23
4.68235e-23
-1.63897e-22
-4.68256e-23
-1.63893e-22
-1.1707e-22
-9.36608e-23
1.63898e-22
2.3411e-23
1.87307e-22
-1.63896e-22
9.36523e-23
-9.36499e-23
1.87313e-22
-4.68274e-23
-2.34175e-23
-4.68321e-23
2.34155e-23
2.34167e-23
2.34174e-23
-7.02372e-23
1.17062e-22
1.17065e-22
-7.02409e-23
-7.02469e-23
2.34138e-23
7.0243e-23
-2.3415e-23
-2.34138e-22
2.34136e-22
-1.5827e-27
-9.36537e-23
4.68264e-23
2.10719e-22
7.02399e-23
2.34173e-23
-7.02405e-23
7.02415e-23
1.46157e-27
-2.3415e-23
-2.34139e-22
-7.0241e-23
-2.34102e-23
7.02462e-23
2.34126e-23
-1.17069e-22
4.68254e-23
1.17068e-22
-2.80131e-27
5.82467e-27
1.40485e-22
-9.36584e-23
-7.02419e-23
-4.68259e-23
-2.34154e-23
-4.68312e-23
-4.68254e-23
-7.02421e-23
2.34164e-23
-8.7415e-28
1.83081e-28
-2.34123e-23
-2.46334e-27
2.34109e-23
-8.73492e-28
-7.03739e-28
1.01488e-27
1.4334e-27
1.17608e-33
5.03317e-40
1.38908e-46
2.94966e-53
1.4048e-22
-4.68295e-23
-4.68247e-23
4.68266e-23
2.34144e-23
-4.68273e-23
-7.02441e-23
1.17069e-22
9.3651e-23
-1.17066e-22
-4.68284e-23
9.36557e-23
-1.17069e-22
4.6827e-23
-1.8731e-22
9.36535e-23
2.3417e-23
2.34124e-23
-7.02406e-23
4.6826e-23
2.34146e-23
2.34119e-23
9.36529e-23
-2.3417e-23
-7.0245e-23
2.34136e-23
-4.68304e-23
9.36587e-23
-7.02398e-23
-7.02399e-23
-2.34137e-23
-7.02421e-23
1.17066e-22
-2.34096e-23
-1.63895e-22
2.34137e-23
-9.36558e-23
-1.40479e-22
7.0244e-23
3.40751e-27
1.40479e-22
9.36541e-23
2.34166e-23
-1.63898e-22
-2.3414e-23
1.40482e-22
7.02409e-23
1.40485e-22
1.63901e-22
-1.17068e-22
-1.17068e-22
-2.34131e-23
-9.36511e-23
7.02399e-23
-2.34139e-23
-2.3415e-23
-4.68251e-23
-6.30041e-28
-2.34091e-23
2.34114e-23
-9.36573e-23
-1.40484e-22
-4.6826e-23
9.36555e-23
7.0242e-23
-7.02347e-23
9.36541e-23