/*--------------------------------*- C++ -*----------------------------------*\
  =========                 |
  \\      /  F ield         | OpenFOAM: The Open Source CFD Toolbox
   \\    /   O peration     | Website:  https://openfoam.org
    \\  /    A nd           | Version:  10
     \\/     M anipulation  |
\*---------------------------------------------------------------------------*/
FoamFile
{
    format      ascii;
    class       volScalarField;
    location    "0.002";
    object      p;
}
// * * * * * * * * * * * * * * * * * * * * * * * * * * * * * * * * * * * * * //

dimensions      [1 -1 -2 0 0 0 0];

internalField   nonuniform List<scalar> 
10000
(
2.37125
2.37114
2.37048
2.37024
2.36883
2.36856
2.36624
2.36616
2.36263
2.36314
2.35789
2.35964
2.35185
2.35587
2.34424
2.35218
2.33463
2.3491
2.32238
2.34741
2.30654
2.34827
2.28568
2.35341
2.25777
2.36524
2.21992
2.38715
2.16819
2.42371
2.09735
2.48087
2.00067
2.5661
1.86994
2.68836
1.6955
2.85796
1.4665
3.08621
1.17131
3.38495
0.797858
3.76623
0.334246
4.24181
-0.231116
4.82288
-0.909087
5.51996
-1.70977
6.34263
-2.64241
7.29987
-3.71546
8.39971
-4.93661
9.64935
-6.31309
11.0549
-7.85082
12.6247
-9.55569
14.3631
-11.4316
16.2736
-13.4838
18.3602
-15.7153
20.627
-18.1291
23.0762
-20.7287
25.7106
-23.5159
28.5322
-26.4923
31.5432
-29.6594
34.7442
-33.0204
38.137
-36.5741
41.7216
-40.322
45.4988
-44.264
49.4678
-48.4002
53.6296
-52.7296
57.9821
-57.2516
62.525
-61.9635
67.2568
-66.8643
72.1746
-71.9516
77.2763
1.04652
1.04654
1.04613
1.04624
1.04534
1.04564
1.0441
1.04481
1.04234
1.04384
1.03995
1.04286
1.03678
1.04209
1.03256
1.04188
1.02689
1.04271
1.01917
1.04538
1.00847
1.05099
0.993441
1.06121
0.972144
1.07837
0.941851
1.10567
0.898861
1.14741
0.83833
1.20905
0.754164
1.29735
0.639086
1.42016
0.484773
1.58626
0.282177
1.8049
0.0219707
2.08548
-0.305082
2.43712
-0.707747
2.86833
-1.1941
3.38685
-1.77119
3.99943
-2.44504
4.71164
-3.22073
5.52787
-4.10211
6.4513
-5.09207
7.48359
-6.1927
8.62635
-7.40484
9.87912
-8.7308
11.2454
-10.1702
12.7246
-11.7224
14.3159
-13.3861
16.0182
-15.1592
17.8287
-17.0404
19.7456
-19.0266
21.7663
-21.1147
23.8877
-23.3016
26.1055
-25.5837
28.4167
-27.9567
30.8171
-30.4155
33.3018
-32.9557
35.8655
-35.5715
38.5041
-38.2603
41.2119
-41.017
43.9862
-43.8347
46.8205
-46.7087
49.7097
-49.6348
52.6482
0.212343
0.21246
0.212289
0.212687
0.212269
0.213056
0.212235
0.213622
0.212117
0.214471
0.211811
0.215743
0.211147
0.217644
0.209867
0.220508
0.207566
0.224831
0.203633
0.231376
0.197163
0.241252
0.186822
0.256059
0.170732
0.27803
0.14631
0.31018
0.110132
0.356401
0.0578509
0.421502
-0.0157504
0.511115
-0.116628
0.63149
-0.251197
0.789152
-0.426027
0.990569
-0.647417
1.24183
-0.921208
1.54834
-1.25242
1.91468
-1.64534
2.34443
-2.10323
2.84013
-2.62825
3.40383
-3.22204
4.03674
-3.88525
4.73948
-4.61775
5.51226
-5.41863
6.35499
-6.28566
7.26426
-7.21671
8.23514
-8.20966
9.26714
-9.26114
10.3562
-10.3673
11.4986
-11.5247
12.6903
-12.7294
13.928
-13.9777
15.2069
-15.2639
16.523
-16.5847
17.8713
-17.9352
19.2471
-19.3102
20.6457
-20.7055
22.0627
-22.1166
23.4929
-23.5371
24.9317
-24.9628
26.3717
-26.3975
27.8188
-27.8363
29.2687
-29.2757
30.7179
-30.711
32.1607
-0.202131
-0.201939
-0.202002
-0.201381
-0.201589
-0.200419
-0.200949
-0.198993
-0.200159
-0.197004
-0.199341
-0.1943
-0.198692
-0.190649
-0.198514
-0.185688
-0.199268
-0.178868
-0.201649
-0.169364
-0.206658
-0.155992
-0.21572
-0.137094
-0.230783
-0.110446
-0.254388
-0.0731932
-0.289689
-0.0218783
-0.340426
0.0474467
-0.410713
0.139032
-0.504849
0.257153
-0.627009
0.405826
-0.781001
0.588585
-0.970047
0.808346
-1.19672
1.06735
-1.46289
1.36717
-1.76985
1.70875
-2.11858
2.09205
-2.50866
2.5168
-2.93966
2.98189
-3.41048
3.48636
-3.91885
4.02778
-4.46262
4.60379
-5.03936
5.21208
-5.64626
5.85043
-6.28011
6.51403
-6.93775
7.20138
-7.61465
7.90727
-8.30607
8.62561
-9.00838
9.35313
-9.71815
10.0857
-10.4314
10.8208
-11.1459
11.5548
-11.8568
12.2833
-12.5587
13.0017
-13.2477
13.7055
-13.9192
14.3904
-14.5786
15.0622
-15.2235
15.7163
-15.8491
16.3504
-16.4506
16.9592
-17.0232
17.5384
-17.5641
18.0833
-0.340119
-0.33971
-0.340166
-0.338866
-0.33992
-0.337517
-0.339474
-0.335562
-0.338951
-0.332839
-0.338538
-0.329118
-0.338521
-0.324048
-0.339326
-0.317113
-0.341585
-0.307568
-0.346212
-0.294363
-0.354463
-0.276073
-0.36801
-0.250864
-0.388943
-0.216495
-0.41972
-0.1704
-0.463034
-0.109842
-0.521645
-0.0321141
-0.598133
0.0652725
-0.694823
0.184415
-0.813588
0.32692
-0.955735
0.493806
-1.1219
0.685463
-1.31211
0.901676
-1.52569
1.14172
-1.76158
1.40505
-2.01916
1.69153
-2.29828
1.99891
-2.59658
2.3249
-2.91451
2.67018
-3.24873
3.03137
-3.59757
3.40605
-3.95828
3.79143
-4.32783
4.18405
-4.70324
4.58037
-5.08155
4.9769
-5.4605
5.37229
-5.83784
5.76529
-6.2097
6.15192
-6.57148
6.52619
-6.9183
6.88457
-7.25482
7.23151
-7.57793
7.56372
-7.88446
7.87856
-8.17201
8.17327
-8.43759
8.4447
-8.67754
8.69053
-8.88993
8.90831
-9.07131
9.09512
-9.21869
9.24699
-9.32809
9.36072
-9.39702
9.43204
-0.327991
-0.326558
-0.329163
-0.324663
-0.330279
-0.322122
-0.331561
-0.318694
-0.333281
-0.314059
-0.3358
-0.307798
-0.339601
-0.299343
-0.345331
-0.287924
-0.353842
-0.27254
-0.366243
-0.251932
-0.383892
-0.22461
-0.408359
-0.188917
-0.441341
-0.143138
-0.484541
-0.0856379
-0.539535
-0.0150022
-0.607658
0.06985
-0.689947
0.169613
-0.786985
0.284547
-0.898998
0.414512
-1.02575
0.558997
-1.16645
0.717046
-1.3198
0.88695
-1.48341
1.06568
-1.65416
1.24944
-1.82809
1.44152
-2.00815
1.63925
-2.19045
1.83818
-2.37706
2.04077
-2.56772
2.24711
-2.76174
2.4561
-2.95744
2.66617
-3.15318
2.87544
-3.3473
3.08223
-3.53823
3.28484
-3.7242
3.48176
-3.90315
3.67098
-4.07347
3.85033
-4.2335
4.01974
-4.382
4.17716
-4.51769
4.32085
-4.63876
4.44855
-4.74213
4.55769
-4.82601
4.64579
-4.88775
4.71006
-4.92448
4.74812
-4.93421
4.75602
-4.91266
4.73153
-4.85599
4.67187
-4.75941
4.57389
-4.61795
4.43204
-0.252563
-0.248624
-0.256395
-0.244093
-0.260623
-0.238536
-0.265698
-0.231482
-0.272093
-0.222416
-0.280322
-0.210817
-0.290932
-0.19612
-0.304525
-0.177714
-0.321755
-0.154946
-0.343293
-0.127147
-0.369811
-0.093665
-0.401948
-0.0539084
-0.44027
-0.00737415
-0.485236
0.0463047
-0.537174
0.107352
-0.596259
0.175835
-0.662513
0.251663
-0.735735
0.33459
-0.815472
0.42416
-0.901129
0.519627
-0.991877
0.619791
-1.08721
0.723914
-1.18527
0.830486
-1.28497
0.939116
-1.38588
1.05047
-1.48871
1.16288
-1.59195
1.27525
-1.69673
1.3891
-1.80115
1.50252
-1.90477
1.61491
-2.00664
1.72537
-2.10557
1.83274
-2.20045
1.93602
-2.29015
2.03445
-2.37333
2.12667
-2.44888
2.21124
-2.51553
2.28661
-2.57184
2.3516
-2.61616
2.40417
-2.64694
2.44262
-2.66278
2.4657
-2.66215
2.4719
-2.64387
2.46043
-2.60676
2.43066
-2.55014
2.38236
-2.47464
2.31524
-2.38059
2.23012
-2.26949
2.12655
-2.14428
2.00636
-2.0103
1.87373
-0.162973
-0.159378
-0.166578
-0.155275
-0.170713
-0.150185
-0.175864
-0.143634
-0.182495
-0.135162
-0.191047
-0.124352
-0.201923
-0.110827
-0.215483
-0.0942628
-0.232035
-0.0743926
-0.251823
-0.0510133
-0.275031
-0.0239872
-0.301778
0.00675915
-0.332123
0.0412406
-0.366063
0.0794194
-0.403542
0.121212
-0.444449
0.166506
-0.48864
0.215147
-0.535941
0.266981
-0.586163
0.321835
-0.639155
0.379439
-0.694487
0.439269
-0.751601
0.500411
-0.808517
0.56182
-0.86565
0.623898
-0.923219
0.686136
-0.980672
0.748311
-1.03774
0.809938
-1.09397
0.870777
-1.14845
0.929935
-1.20049
0.986799
-1.24946
1.04062
-1.2946
1.09053
-1.33507
1.13563
-1.36994
1.17492
-1.39816
1.20736
-1.41878
1.23179
-1.43081
1.24712
-1.43313
1.25247
-1.42463
1.24673
-1.40459
1.22895
-1.37215
1.19835
-1.32664
1.15385
-1.26721
1.09458
-1.19263
1.01955
-1.10189
0.92792
-0.994623
0.81909
-0.870399
0.694173
-0.730414
0.552758
-0.573284
0.393551
-0.403889
0.222707
-0.0839203
-0.0814286
-0.086465
-0.0786363
-0.0894223
-0.0752023
-0.0931306
-0.0708077
-0.0978988
-0.065157
-0.104002
-0.0579998
-0.111675
-0.0491325
-0.121101
-0.0383998
-0.132415
-0.025697
-0.145704
-0.0109655
-0.161003
0.0058093
-0.178306
0.0246022
-0.197565
0.0453488
-0.218691
0.067959
-0.24157
0.092312
-0.266063
0.11828
-0.292014
0.145702
-0.319264
0.174417
-0.347637
0.204249
-0.37693
0.235
-0.406853
0.266445
-0.437615
0.298653
-0.468348
0.330981
-0.499008
0.363219
-0.529336
0.394775
-0.558686
0.425443
-0.586802
0.454809
-0.613033
0.482156
-0.637036
0.507047
-0.658108
0.52893
-0.675669
0.547105
-0.689164
0.560892
-0.697884
0.569467
-0.70113
0.572149
-0.698133
0.568237
-0.688178
0.557004
-0.670613
0.537766
-0.644758
0.509951
-0.609958
0.472922
-0.56556
0.425997
-0.511027
0.368806
-0.446117
0.301241
-0.371306
0.224689
-0.287217
0.139257
-0.193691
0.0439222
-0.0891481
-0.0656364
0.0354909
-0.197709
0.178215
-0.344001
0.333168
-0.500609
0.495539
-0.663765
-0.0241463
-0.0227181
-0.0256411
-0.0211665
-0.027397
-0.0193029
-0.0296012
-0.0169505
-0.0324261
-0.013942
-0.0360275
-0.0101297
-0.0405418
-0.0053886
-0.0460819
0.000382868
-0.0527338
0.00725956
-0.0605547
0.0152899
-0.0695734
0.0244914
-0.0797874
0.0348559
-0.0911663
0.0463427
-0.103651
0.0588876
-0.117157
0.072398
-0.131575
0.0867629
-0.146776
0.101843
-0.162608
0.117484
-0.178889
0.1335
-0.195431
0.149698
-0.212037
0.165831
-0.228573
0.181803
-0.244672
0.197241
-0.260142
0.211848
-0.274614
0.225241
-0.28771
0.237095
-0.299101
0.247192
-0.308375
0.254948
-0.315305
0.26005
-0.31943
0.262217
-0.320358
0.26103
-0.317774
0.256139
-0.311313
0.247123
-0.300601
0.233672
-0.285263
0.215484
-0.264947
0.192255
-0.239311
0.163525
-0.207906
0.129004
-0.170405
0.088631
-0.126865
0.0418653
-0.0762979
-0.0131191
-0.01529
-0.0834278
0.0625372
-0.167895
0.152608
-0.263553
0.252947
-0.36862
0.362108
-0.481687
0.478643
-0.600881
0.599817
-0.724139
0.72409
-0.849597
0.850092
-0.976297
0.0157872
0.0164962
0.0150108
0.0172295
0.014074
0.0180808
0.0128823
0.0191423
0.011344
0.0205092
0.00936919
0.0222741
0.00687101
0.0245247
0.00376859
0.0273407
-8.08961e-06
0.0307897
-0.00451495
0.0349228
-0.00979014
0.0397705
-0.0158505
0.0453432
-0.022691
0.0516241
-0.030282
0.0585745
-0.0385695
0.0661291
-0.0474755
0.0742012
-0.0568983
0.0826762
-0.0667132
0.0914194
-0.0767713
0.100266
-0.0869204
0.109044
-0.0969788
0.117543
-0.106735
0.125578
-0.115941
0.132884
-0.124399
0.139222
-0.131812
0.144354
-0.137967
0.147995
-0.142566
0.150034
-0.145334
0.150083
-0.146116
0.147901
-0.144613
0.143309
-0.140561
0.136071
-0.133733
0.125935
-0.123869
0.112634
-0.110696
0.0958393
-0.0938095
0.0750729
-0.0726535
0.0498343
-0.04683
0.0193706
-0.0150194
-0.0187344
0.0272502
-0.0685135
0.0799752
-0.128016
0.141909
-0.196323
0.212096
-0.272426
0.288962
-0.354033
0.370664
-0.439636
0.455679
-0.527779
0.542565
-0.617186
0.62998
-0.706736
0.717085
-0.795393
0.802735
-0.881926
0.886086
-0.965768
0.0388229
0.0391499
0.0384346
0.0394609
0.0379399
0.0398032
0.0372897
0.0402262
0.0364325
0.0407854
0.0353134
0.04154
0.0338746
0.0425512
0.032057
0.0438794
0.0298046
0.0455798
0.0270672
0.0476988
0.0238057
0.0502692
0.0199951
0.0533082
0.0156275
0.056813
0.0107154
0.0607615
0.00529122
0.0651101
-0.000589695
0.0697943
-0.00685208
0.0747256
-0.0134
0.0797974
-0.0201184
0.0848812
-0.0268825
0.0898374
-0.033533
0.0945112
-0.0398974
0.0987284
-0.0458044
0.102306
-0.0510833
0.105066
-0.0555008
0.10683
-0.0588913
0.107367
-0.0610105
0.106559
-0.0616245
0.104117
-0.0605788
0.0997915
-0.0575975
0.0933389
-0.0523974
0.0844728
-0.0446728
0.0727938
-0.0338903
0.0577495
-0.0194457
0.0387419
-0.00076646
0.0146525
0.0243379
-0.0177559
0.0582385
-0.0583003
0.0997743
-0.106096
0.14813
-0.159955
0.201611
-0.218362
0.258814
-0.279953
0.318447
-0.343419
0.379394
-0.407759
0.440691
-0.471938
0.501403
-0.535038
0.560607
-0.5962
0.617406
-0.654613
0.671064
-0.709435
0.720734
-0.759793
0.76573
-0.805125
0.0489098
0.0490638
0.0487031
0.0491894
0.0484187
0.049313
0.0480285
0.0494631
0.0475008
0.0496729
0.0468
0.0499804
0.0458863
0.0504272
0.0447172
0.0510571
0.0432498
0.0519122
0.0414439
0.0530303
0.0392657
0.0544404
0.0366914
0.0561599
0.0337099
0.0581915
0.0303265
0.0605223
0.0265625
0.0631225
0.0224582
0.0659436
0.0180708
0.0689184
0.0134761
0.0719623
0.00876711
0.0749734
0.00405133
0.0778382
-0.000537878
0.080434
-0.00486487
0.0826084
-0.00879366
0.0842088
-0.0121677
0.0850878
-0.0147892
0.0850842
-0.0164916
0.0839788
-0.0170455
0.081576
-0.0161993
0.0776072
-0.0137331
0.0718039
-0.00931709
0.0637428
-0.00248454
0.0528928
0.00723591
0.0388826
0.020456
0.0204907
0.0394864
-0.00474126
0.0649455
-0.0360676
0.09617
-0.072692
0.13204
-0.113338
0.171346
-0.156865
0.212974
-0.202248
0.25587
-0.248532
0.299105
-0.294839
0.341863
-0.340339
0.383413
-0.384365
0.42308
-0.426253
0.460311
-0.465317
0.494491
-0.500967
0.524901
-0.532542
0.550887
-0.55935
0.571764
-0.580746
0.586948
-0.59616
0.0498801
0.049961
0.0497542
0.0500122
0.0495679
0.0500505
0.0493029
0.0500941
0.0489382
0.0501649
0.0484485
0.0502886
0.0478054
0.0504948
0.0469773
0.0508155
0.045932
0.051282
0.0446392
0.0519237
0.0430732
0.0527621
0.0412162
0.0538102
0.0390622
0.0550686
0.0366171
0.0565241
0.0339016
0.0581498
0.0309506
0.0599041
0.027814
0.0617295
0.0245568
0.0635524
0.0212611
0.0652832
0.0180263
0.0668173
0.0149705
0.0680404
0.0122161
0.0688107
0.00989466
0.0689827
0.00816936
0.0683983
0.00722652
0.0668993
0.00722796
0.0643131
0.00837047
0.0603642
0.0109771
0.0546785
0.015453
0.046915
0.0220212
0.036759
0.0314108
0.0227438
0.0456531
0.00361969
0.0645438
-0.0198828
0.0875474
-0.0470169
0.11354
-0.0767354
0.141573
-0.108181
0.170856
-0.140728
0.200778
-0.173558
0.23077
-0.206158
0.260191
-0.237953
0.288459
-0.268313
0.314899
-0.296505
0.338799
-0.32182
0.359399
-0.344227
0.376655
-0.362977
0.390703
-0.378248
0.400948
-0.389457
0.406862
-0.396038
0.407892
-0.397504
0.403514
-0.393299
0.0450331
0.0450858
0.0449428
0.0451126
0.0448034
0.0451263
0.0446014
0.0451411
0.0443206
0.045174
0.0439418
0.0452451
0.0434429
0.0453768
0.0427994
0.0455929
0.041988
0.0459161
0.0409876
0.0463652
0.039783
0.046952
0.038367
0.047679
0.0367441
0.048537
0.0349294
0.0495042
0.0329516
0.0505471
0.0308507
0.0516203
0.0286779
0.0526665
0.0264945
0.0536165
0.0243748
0.0543882
0.0224103
0.0548808
0.0207139
0.0549743
0.0194073
0.0545334
0.0186233
0.0534363
0.018519
0.0514859
0.0193247
0.0484561
0.0212937
0.0440981
0.0245694
0.038426
0.029284
0.0309285
0.0365032
0.0200216
0.0470779
0.0057712
0.0607937
-0.0114919
0.0772492
-0.0310724
0.0958145
-0.0523845
0.115715
-0.0746805
0.136226
-0.0972245
0.156594
-0.119262
0.176053
-0.140947
0.194682
-0.161595
0.212008
-0.180775
0.228207
-0.198711
0.242884
-0.21496
0.255605
-0.229077
0.265961
-0.240737
0.273601
-0.249603
0.278281
-0.255286
0.279649
-0.257428
0.277272
-0.255629
0.270761
-0.24947
0.25972
-0.238642
0.243809
-0.222787
0.0370132
0.0370617
0.0369348
0.0370917
0.0368152
0.037115
0.0366423
0.0371451
0.036402
0.0371968
0.0360784
0.0372869
0.0356546
0.0374322
0.0351136
0.0376478
0.034441
0.0379462
0.0336272
0.038333
0.0326696
0.0388077
0.0315755
0.0393584
0.0303617
0.0399629
0.0290566
0.0405879
0.0276998
0.0411901
0.02634
0.0417164
0.0250344
0.0421052
0.0238458
0.0422878
0.0228424
0.0421927
0.0220967
0.0417411
0.0216981
0.0408179
0.0217778
0.0392629
0.0225152
0.0369347
0.0240056
0.0337534
0.0264223
0.0294577
0.0303177
0.0228091
0.0367896
0.0139632
0.0452843
0.00334039
0.0554776
-0.00843676
0.0664341
-0.0215954
0.0783872
-0.0355104
0.0905779
-0.0494951
0.103235
-0.0637812
0.115963
-0.0780484
0.128454
-0.0919635
0.14037
-0.105298
0.151494
-0.11795
0.161744
-0.129532
0.170913
-0.139909
0.178692
-0.148814
0.184849
-0.155973
0.189084
-0.161057
0.191151
-0.163917
0.190697
-0.164125
0.187441
-0.161376
0.181048
-0.155306
0.171187
-0.145621
0.157594
-0.132112
0.140085
-0.114626
0.118539
-0.0930537
0.0278057
0.0278551
0.0277352
0.027893
0.0276332
0.0279292
0.0274897
0.0279743
0.0272949
0.0280383
0.0270395
0.0281307
0.0267151
0.0282592
0.0263158
0.0284283
0.0258376
0.0286386
0.0252823
0.0288858
0.0246568
0.0291595
0.0239755
0.029442
0.0232599
0.0297075
0.0225397
0.0299226
0.0218531
0.0300468
0.0212444
0.0300322
0.0207645
0.0298247
0.0204715
0.0293598
0.0204352
0.0285615
0.0207314
0.0273614
0.0213947
0.0257272
0.0224857
0.0235342
0.0243205
0.0202261
0.0273422
0.0157991
0.0314742
0.0101513
0.0368984
0.00314513
0.0434173
-0.00474023
0.0507229
-0.0131172
0.0583585
-0.0218084
0.0661402
-0.0307838
0.0740532
-0.0398561
0.0820059
-0.0489234
0.0899798
-0.0579517
0.0977421
-0.0667376
0.105097
-0.0750097
0.111829
-0.0826488
0.117821
-0.0894553
0.122861
-0.0952304
0.126774
-0.0997705
0.129231
-0.102769
0.129996
-0.103962
0.128788
-0.102976
0.125528
-0.0998678
0.119898
-0.0945267
0.111942
-0.0867331
0.101424
-0.0762725
0.0881078
-0.0628466
0.0716584
-0.0461792
0.0516893
-0.0261434
0.0284682
-0.00278121
0.0187882
0.0188212
0.0187429
0.0188474
0.018679
0.0188721
0.0185909
0.0189004
0.0184734
0.0189372
0.0183235
0.0189859
0.0181388
0.0190481
0.0179195
0.0191225
0.017668
0.019205
0.0173897
0.0192879
0.0170936
0.0193603
0.0167926
0.0194076
0.0165036
0.019411
0.0162472
0.0193478
0.0160487
0.0191907
0.0159376
0.0189067
0.0159491
0.0184571
0.0161209
0.0178005
0.0165038
0.0168548
0.0172402
0.0154011
0.018532
0.0133423
0.0204241
0.0106167
0.0229923
0.00719766
0.0261788
0.00317814
0.0299226
-0.00135792
0.0341397
-0.00628308
0.0386791
-0.0115216
0.043457
-0.0169833
0.0484109
-0.0226368
0.053523
-0.0284026
0.058712
-0.0342587
0.0639511
-0.0401463
0.0691849
-0.0459837
0.0739457
-0.0512011
0.0780944
-0.0556763
0.0814841
-0.0594014
0.0840429
-0.0622447
0.0856208
-0.0640536
0.0860659
-0.0646637
0.0851648
-0.0638529
0.0826907
-0.0613859
0.0782699
-0.0567438
0.0718457
-0.0498761
0.0633507
-0.0413541
0.0531591
-0.0310416
0.0411434
-0.0189039
0.0273902
-0.00524813
0.0119866
0.0105001
-0.00698478
0.0302663
-0.0286866
0.0522227
0.0108102
0.0108283
0.0107868
0.010844
0.0107555
0.0108594
0.0107134
0.0108758
0.0106584
0.0108953
0.0105896
0.0109189
0.0105068
0.0109465
0.0104114
0.0109761
0.0103063
0.0110044
0.0101953
0.0110249
0.0100861
0.0110298
0.00998816
0.0110078
0.00991388
0.0109443
0.00988013
0.0108201
0.00990822
0.0106102
0.0100271
0.0102772
0.0102872
0.00974684
0.0107763
0.0089342
0.011571
0.00775976
0.0127466
0.0061674
0.0143208
0.00417069
0.0162735
0.00180508
0.0185592
-0.000853104
0.0211017
-0.00375636
0.0238488
-0.0068256
0.0267355
-0.00998929
0.029705
-0.0132386
0.0327277
-0.0165441
0.0357756
-0.01985
0.0387947
-0.0230968
0.0417174
-0.0262334
0.044484
-0.0292028
0.0470341
-0.0319064
0.0492003
-0.0342024
0.0508775
-0.0358681
0.0518788
-0.036819
0.0520926
-0.0369579
0.0514336
-0.0361724
0.0498029
-0.0343804
0.0470926
-0.0314654
0.0431974
-0.0273232
0.0380085
-0.0217779
0.0315967
-0.0150037
0.0237851
-0.00706446
0.0148209
0.00210174
0.00423876
0.0138416
-0.00940479
0.0282105
-0.025181
0.0445076
-0.0428348
0.0623773
-0.0616096
0.0813152
0.00431158
0.00432114
0.00430228
0.00433192
0.00429212
0.00434456
0.0042798
0.00435917
0.00426431
0.00437624
0.00424575
0.00439575
0.00422439
0.00441698
0.0042016
0.00443829
0.00418003
0.00445664
0.00416302
0.00446676
0.00415736
0.00446152
0.00417206
0.00442966
0.00422016
0.00435475
0.00432248
0.00420968
0.00451218
0.00395463
0.00483232
0.00354188
0.00533321
0.00291967
0.00606015
0.0020519
0.0070382
0.000924047
0.0082677
-0.000448498
0.00972649
-0.00203964
0.0113867
-0.00380866
0.0132089
-0.00571398
0.0151534
-0.00771993
0.0171819
-0.00978435
0.0192571
-0.0118641
0.021335
-0.0139241
0.0233762
-0.0159208
0.0253202
-0.0177896
0.0271005
-0.0194812
0.028666
-0.0209297
0.0299539
-0.0220777
0.0309107
-0.0228552
0.0314653
-0.0232394
0.0315929
-0.0231349
0.0311992
-0.0224801
0.0302096
-0.0212197
0.0285866
-0.0192926
0.0262736
-0.0166585
0.0232152
-0.0132513
0.0193371
-0.0089972
0.014552
-0.0037453
0.0087616
0.00255379
0.00143546
0.0111126
-0.00833023
0.0217073
-0.0198741
0.0340223
-0.0328155
0.0474571
-0.0467447
0.0617081
-0.0613305
0.076513
-0.0763921
0.091707
-0.000569594
-0.000564528
-0.000570914
-0.000555403
-0.000568694
-0.000542156
-0.000563267
-0.000525157
-0.000555358
-0.000504777
-0.000544071
-0.000481648
-0.000528824
-0.000457275
-0.000507801
-0.000433879
-0.00047809
-0.000415228
-0.00043437
-0.000408046
-0.000368728
-0.000421984
-0.000268363
-0.000472545
-0.000114901
-0.000581247
0.000116698
-0.000776455
0.000455412
-0.00108945
0.000931463
-0.00154811
0.00156843
-0.0021709
0.00237768
-0.00296371
0.00335819
-0.00391953
0.00449868
-0.0050223
0.00578296
-0.00625159
0.00718947
-0.00758171
0.00869085
-0.0089841
0.010259
-0.0104248
0.0118608
-0.0118692
0.0134596
-0.0132786
0.0150119
-0.0146109
0.0164731
-0.0158223
0.0177867
-0.0168641
0.0189055
-0.0176952
0.0197869
-0.0182659
0.0203864
-0.0185282
0.0206614
-0.0184447
0.0205668
-0.0179861
0.0200827
-0.0171169
0.01917
-0.0158031
0.0177824
-0.0140006
0.0158825
-0.0116533
0.0134084
-0.00869507
0.0102742
-0.00500844
0.0063161
-0.000403332
0.00125732
0.00573388
-0.00565675
0.0136352
-0.0141289
0.0229501
-0.0237655
0.0332003
-0.0341524
0.0440735
-0.0450118
0.0553382
-0.0561463
0.0667749
-0.0673754
0.0782174
-0.0785721
0.0895537
-0.00390122
-0.00389859
-0.00389808
-0.00389016
-0.00388885
-0.00387624
-0.00387335
-0.00385738
-0.00385134
-0.00383454
-0.00382178
-0.00380915
-0.00378309
-0.00378377
-0.00373235
-0.00376221
-0.00366501
-0.00375046
-0.00357299
-0.00375765
-0.0034459
-0.00379682
-0.00326893
-0.0038843
-0.00302276
-0.0040399
-0.00268695
-0.00428406
-0.00224302
-0.00463521
-0.00167636
-0.00510464
-0.000978956
-0.00569706
-0.000150575
-0.00641043
0.000802776
-0.00723671
0.00187138
-0.00816151
0.00304003
-0.00916592
0.00428906
-0.0102276
0.00559348
-0.0113192
0.00692691
-0.0124094
0.00825792
-0.0134649
0.00955112
-0.014452
0.0107694
-0.0153356
0.0118726
-0.0160804
0.012819
-0.0166512
0.0135755
-0.0170133
0.0141054
-0.0171301
0.0143757
-0.0169641
0.0143508
-0.0164854
0.0139955
-0.0156586
0.0132733
-0.0144458
0.0121468
-0.0128057
0.0105647
-0.0106797
0.00846797
-0.00798538
0.00575866
-0.00460235
0.00226568
-0.000303552
-0.00238419
0.00548316
-0.00853343
0.0125359
-0.0157181
0.0204192
-0.0235728
0.0288324
-0.0318195
0.0375614
-0.0402488
0.0464003
-0.0487024
0.0551984
-0.0570117
0.0637752
-0.0650351
0.0719971
-0.0726727
0.0797646
-0.00587577
-0.00587479
-0.00586999
-0.00586741
-0.00585681
-0.00585431
-0.0058354
-0.00583637
-0.00580464
-0.00581522
-0.00576265
-0.00579332
-0.0057066
-0.00577514
-0.00563174
-0.00576598
-0.00553108
-0.00577432
-0.00539466
-0.00581129
-0.00521023
-0.00589196
-0.00496399
-0.00603028
-0.00463886
-0.00624186
-0.00422061
-0.00653919
-0.00369893
-0.00693252
-0.00306787
-0.00742516
-0.00232634
-0.00801667
-0.00147825
-0.00870147
-0.000532139
-0.00946877
0.000499809
-0.0103024
0.00160068
-0.0111828
0.00274989
-0.0120866
0.00392348
-0.012988
0.00509567
-0.0138583
0.0062374
-0.0146687
0.00731749
-0.0153892
0.00830499
-0.015991
0.00916489
-0.0164445
0.00986467
-0.0167208
0.0103752
-0.0167881
0.0106636
-0.0166127
0.010699
-0.0161621
0.0104477
-0.0154023
0.00987518
-0.014297
0.00893727
-0.0128031
0.00758957
-0.0108697
0.00577435
-0.00842998
0.00341701
-0.0053834
0.000392972
-0.00152691
-0.00363794
0.00354842
-0.00884366
0.00953727
-0.0147457
0.0160835
-0.0210502
0.0229331
-0.0275581
0.0298963
-0.0340909
0.0368283
-0.0404969
0.043574
-0.0466318
0.0499916
-0.0523632
0.0559471
-0.0575764
0.0613334
-0.0621836
0.0660541
-0.00674721
-0.00674818
-0.00673929
-0.00674326
-0.0067231
-0.0067337
-0.006697
-0.00672127
-0.00665852
-0.00670876
-0.00660443
-0.00670069
-0.00652989
-0.0067032
-0.00642758
-0.00672423
-0.00628813
-0.00677392
-0.00609991
-0.00686445
-0.00585005
-0.00701138
-0.00552676
-0.0072252
-0.00511827
-0.00751701
-0.00461554
-0.00789363
-0.00401349
-0.00835895
-0.00331244
-0.0089106
-0.00251639
-0.00954373
-0.00163332
-0.0102482
-0.000675287
-0.0110093
0.000342578
-0.0118097
0.00140143
-0.0126289
0.00248057
-0.0134429
0.0035564
-0.0142279
0.00460444
-0.0149569
0.00559739
-0.0156043
0.00650751
-0.0161423
0.0073067
-0.0165445
0.00796386
-0.0167841
0.00845011
-0.0168339
0.0087372
-0.0166637
0.0087951
-0.0162423
0.00859457
-0.0155397
0.00810299
-0.0145227
0.00728997
-0.0131598
0.00611476
-0.0114144
0.00453995
-0.00924019
0.00251339
-0.00657702
-4.2667e-05
-0.00332123
-0.0033093
0.000895401
-0.00755909
0.00584036
-0.01232
0.0111791
-0.0173506
0.0167071
-0.0224701
0.0222572
-0.0275283
0.0276845
-0.0323834
0.0328664
-0.036919
0.0376749
-0.041013
0.0419914
-0.0445579
0.0457163
-0.0474684
0.0487713
-0.0496742
0.0510752
-0.0067849
-0.0067912
-0.00677164
-0.00679341
-0.00674861
-0.00679442
-0.0067124
-0.00679786
-0.00665812
-0.00680908
-0.00658013
-0.00683584
-0.00647038
-0.00688662
-0.00631886
-0.00697216
-0.00611497
-0.0071026
-0.00584767
-0.00728697
-0.00550598
-0.00753796
-0.00507991
-0.00786353
-0.00456701
-0.00826712
-0.00396493
-0.00875363
-0.00327006
-0.00931858
-0.00249
-0.00995606
-0.00163213
-0.0106567
-0.000708049
-0.0114065
0.000267291
-0.012189
0.00127685
-0.0129856
0.00230095
-0.0137751
0.00331893
-0.0145342
0.00430741
-0.0152393
0.00524311
-0.0158655
0.00609985
-0.0163881
0.00685151
-0.0167809
0.00747208
-0.0170186
0.00793322
-0.0170762
0.00820882
-0.0169288
0.00827259
-0.0165495
0.00809904
-0.0159128
0.00766356
-0.0149931
0.00693899
-0.0137655
0.00590318
-0.0122096
0.00453144
-0.0103012
0.00279811
-0.0080063
0.000665777
-0.00528071
-0.00192701
-0.00200813
-0.00523873
0.00200367
-0.00904312
0.00632574
-0.0130525
0.010767
-0.0170932
0.0151783
-0.021028
0.0194346
-0.0247363
0.0234211
-0.028099
0.0270355
-0.0310257
0.0301844
-0.0334498
0.0327858
-0.0352772
0.0347498
-0.0364266
0.0360144
-0.0368807
0.0365638
-0.00624083
-0.00626755
-0.00620663
-0.0062937
-0.0061588
-0.00632633
-0.00609033
-0.00637213
-0.00599308
-0.00644043
-0.00585748
-0.00654187
-0.00567306
-0.00668705
-0.00542938
-0.00688611
-0.00511851
-0.00714545
-0.00473622
-0.00746522
-0.00428101
-0.00784617
-0.00373933
-0.00829923
-0.00312001
-0.00881504
-0.00243188
-0.00940267
-0.00166701
-0.0100513
-0.000836906
-0.0107535
4.95531e-05
-0.0114979
0.000979546
-0.01227
0.0019376
-0.0130531
0.00290679
-0.0138288
0.00386839
-0.0145771
0.00480231
-0.0152758
0.00568724
-0.0159026
0.00650077
-0.0164346
0.00721861
-0.016849
0.00781632
-0.0171212
0.00827061
-0.0172277
0.00855627
-0.0171464
0.00865059
-0.0168559
0.00853129
-0.0163345
0.00817832
-0.0155629
0.007574
-0.0145232
0.00669951
-0.0131974
0.00553551
-0.0115782
0.00408469
-0.00964516
0.00230839
-0.00737527
0.000198673
-0.00476036
-0.00226273
-0.00174429
-0.00524761
0.00171714
-0.00843194
0.00528238
-0.0116333
0.00879522
-0.0147127
0.0121307
-0.0175584
0.0152049
-0.0201036
0.0179348
-0.0222269
0.0202186
-0.0238293
0.0220227
-0.0249757
0.0233319
-0.0255878
0.0240657
-0.0255992
0.0241717
-0.0249574
0.0236063
-0.00532971
-0.00541625
-0.0052354
-0.00550647
-0.0051227
-0.00561051
-0.00498261
-0.00573927
-0.00480325
-0.00590346
-0.00457404
-0.00611366
-0.00428581
-0.00637873
-0.00393089
-0.0067054
-0.00350664
-0.00709444
-0.00301841
-0.00753651
-0.0024855
-0.00801033
-0.00188312
-0.00853673
-0.00122534
-0.00909334
-0.000534771
-0.00969617
0.000203897
-0.0103353
0.000981983
-0.011004
0.00179197
-0.0116927
0.00262327
-0.0123898
0.00346362
-0.013082
0.00429982
-0.0137547
0.00511742
-0.0143918
0.00590048
-0.014976
0.0066322
-0.0154894
0.00729409
-0.0159141
0.00786594
-0.0162309
0.00832844
-0.0164196
0.00866188
-0.0164613
0.00884585
-0.0163368
0.00886068
-0.0160286
0.0086882
-0.0155195
0.00831233
-0.014794
0.0077199
-0.0138394
0.00689852
-0.0126434
0.00583129
-0.0111887
0.00449523
-0.00942973
0.00283557
-0.00736665
0.000902217
-0.00504476
-0.00127124
-0.00248825
-0.003671
0.000288156
-0.00619252
0.0030623
-0.00861717
0.00568093
-0.0108328
0.00803935
-0.0127133
0.0100651
-0.0142653
0.0117687
-0.0154606
0.013118
-0.0162606
0.0140717
-0.0166345
0.0145746
-0.0165269
0.0145598
-0.015879
0.0139689
-0.0146384
0.0127803
-0.00422971
-0.00441463
-0.00403915
-0.0046032
-0.00383469
-0.00479899
-0.00361093
-0.00501658
-0.00335399
-0.00526428
-0.00305675
-0.00554905
-0.00271332
-0.0058756
-0.00232037
-0.00624702
-0.00187752
-0.00666187
-0.00138855
-0.00711311
-0.000858619
-0.00759506
-0.000278807
-0.0081152
0.000339094
-0.00866261
0.000985641
-0.00924398
0.00166743
-0.00984927
0.00237505
-0.0104726
0.00310203
-0.0111057
0.00383951
-0.0117385
0.00457701
-0.0123601
0.00530353
-0.0129581
0.00600705
-0.0135181
0.00667388
-0.0140261
0.00728907
-0.014467
0.00783696
-0.0148253
0.00830066
-0.0150847
0.00866378
-0.0152285
0.00890975
-0.015241
0.0090222
-0.0151066
0.0089857
-0.0148118
0.00878604
-0.0143446
0.0084127
-0.0136943
0.00785745
-0.012854
0.00711223
-0.0118184
0.00617125
-0.0105922
0.00505271
-0.00917646
0.00373915
-0.00756985
0.00225082
-0.00579906
0.000618248
-0.00389158
-0.0011468
-0.00184872
-0.00299206
0.000166847
-0.00466923
0.00194216
-0.00611612
0.00350256
-0.00731062
0.00482224
-0.00825513
0.00587694
-0.00890242
0.00663179
-0.00921795
0.00703487
-0.00914823
0.00704515
-0.0086612
0.00663261
-0.00772853
0.00574481
-0.00628903
0.00430064
-0.00309632
-0.0033497
-0.00283929
-0.00360431
-0.00257214
-0.003868
-0.00228899
-0.00414623
-0.00198373
-0.00444535
-0.00165044
-0.00477068
-0.00128417
-0.00512517
-0.000882809
-0.00551102
-0.000444957
-0.00592815
2.88866e-05
-0.00637473
0.000539381
-0.00685256
0.00108575
-0.00736083
0.00166319
-0.00789632
0.0022686
-0.00845753
0.00290102
-0.00903822
0.00355266
-0.0096315
0.00421721
-0.0102307
0.00488692
-0.0108265
0.00555272
-0.0114088
0.00620444
-0.0119664
0.006831
-0.012487
0.00742052
-0.0129579
0.00795943
-0.0133659
0.00843395
-0.0136978
0.0088304
-0.0139395
0.00913458
-0.0140775
0.00933301
-0.0140997
0.00941356
-0.0139929
0.00936455
-0.0137492
0.00917608
-0.0133602
0.00884276
-0.0128204
0.00835978
-0.0121284
0.0077261
-0.0112859
0.00694831
-0.0103022
0.00603636
-0.00919171
0.00500745
-0.00796846
0.00387951
-0.00666073
0.00268646
-0.00530216
0.00147398
-0.00392761
0.00030211
-0.00265926
-0.00075083
-0.00150658
-0.00165702
-0.000546715
-0.00235682
0.000265533
-0.00289517
0.000887787
-0.00321565
0.00126089
-0.00325172
0.00131771
-0.00294689
0.00103555
-0.00229709
0.000444722
-0.00134074
-0.000414805
-4.8572e-05
-0.00182268
-0.00202465
-0.00231884
-0.00172741
-0.00261578
-0.00142161
-0.00292042
-0.00110367
-0.00323629