/*--------------------------------*- C++ -*----------------------------------*\
  =========                 |
  \\      /  F ield         | OpenFOAM: The Open Source CFD Toolbox
   \\    /   O peration     | Website:  https://openfoam.org
    \\  /    A nd           | Version:  10
     \\/     M anipulation  |
\*---------------------------------------------------------------------------*/
FoamFile
{
    format      ascii;
    class       volScalarField;
    location    "0.002";
    object      p_rgh;
}
// * * * * * * * * * * * * * * * * * * * * * * * * * * * * * * * * * * * * * //

dimensions      [1 -1 -2 0 0 0 0];

internalField   nonuniform List<scalar> 
10000
(
-25.9306
-25.9307
-25.9314
-25.9316
-25.933
-25.9333
-25.9356
-25.9357
-25.9392
-25.9387
-25.944
-25.9422
-25.95
-25.946
-25.9576
-25.9497
-25.9672
-25.9527
-25.9795
-25.9544
-25.9953
-25.9536
-26.0162
-25.9484
-26.0441
-25.9366
-26.0819
-25.9147
-26.1337
-25.8781
-26.2045
-25.821
-26.3012
-25.7358
-26.4319
-25.6135
-26.6064
-25.4439
-26.8353
-25.2156
-27.1305
-24.9169
-27.504
-24.5356
-27.9676
-24.06
-28.533
-23.479
-29.2109
-22.7819
-30.0116
-21.9592
-30.9443
-21.002
-32.0173
-19.9021
-33.2385
-18.6525
-34.6149
-17.247
-36.1527
-15.6771
-37.8575
-13.9388
-39.7335
-12.0282
-41.7856
-9.94169
-44.0171
-7.67489
-46.431
-5.22567
-49.0305
-2.5912
-51.8177
0.230316
-54.7942
3.24133
-57.9613
6.44238
-61.3222
9.83516
-64.876
13.4198
-68.6239
17.1969
-72.5659
21.1659
-76.7021
25.3277
-81.0315
29.6802
-85.5534
34.2232
-90.2653
38.9549
-95.1662
43.8728
-100.253
48.9744
-24.999
-24.999
-24.9994
-24.9993
-25.0002
-24.9999
-25.0015
-25.0007
-25.0032
-25.0017
-25.0056
-25.0027
-25.0088
-25.0035
-25.013
-25.0037
-25.0187
-25.0028
-25.0264
-25.0002
-25.0371
-24.9946
-25.0521
-24.9843
-25.0734
-24.9672
-25.1037
-24.9399
-25.1467
-24.8981
-25.2072
-24.8365
-25.2914
-24.7482
-25.4065
-24.6254
-25.5608
-24.4593
-25.7634
-24.2407
-26.0236
-23.9601
-26.3506
-23.6084
-26.7533
-23.1772
-27.2396
-22.6587
-27.8167
-22.0461
-28.4906
-21.3339
-29.2663
-20.5177
-30.1477
-19.5943
-31.1376
-18.562
-32.2382
-17.4192
-33.4504
-16.1664
-34.7763
-14.8002
-36.2158
-13.321
-37.7679
-11.7296
-39.4317
-10.0274
-41.2048
-8.21683
-43.0859
-6.29999
-45.0722
-4.27924
-47.1603
-2.15785
-49.3472
0.0599129
-51.6293
2.37117
-54.0023
4.7715
-56.4611
7.25621
-59.0012
9.81996
-61.617
12.4585
-64.3058
15.1664
-67.0625
17.9407
-69.8802
20.7749
-72.7543
23.6641
-75.6804
26.6026
-23.5769
-23.5768
-23.577
-23.5766
-23.577
-23.5762
-23.577
-23.5756
-23.5771
-23.5748
-23.5774
-23.5735
-23.5781
-23.5716
-23.5794
-23.5687
-23.5817
-23.5644
-23.5856
-23.5579
-23.5921
-23.548
-23.6024
-23.5332
-23.6185
-23.5112
-23.6429
-23.4791
-23.6791
-23.4328
-23.7314
-23.3677
-23.805
-23.2781
-23.9059
-23.1578
-24.0404
-23.0001
-24.2153
-22.7987
-24.4367
-22.5474
-24.7105
-22.2409
-25.0417
-21.8746
-25.4346
-21.4448
-25.8925
-20.9491
-26.4175
-20.3854
-27.0113
-19.7525
-27.6745
-19.0498
-28.407
-18.277
-29.2079
-17.4343
-30.0749
-16.525
-31.006
-15.5541
-31.9989
-14.5221
-33.0504
-13.433
-34.1566
-12.2907
-35.314
-11.0989
-36.5187
-9.86121
-37.7669
-8.58235
-39.0532
-7.26621
-40.3739
-5.91795
-41.7244
-4.54219
-43.0994
-3.14354
-44.4947
-1.7266
-45.9058
-0.296341
-47.3264
1.14241
-48.7521
2.58245
-50.1868
4.0296
-51.6256
5.47945
-53.065
6.92864
-54.5002
8.37143
-21.7351
-21.7349
-21.735
-21.7343
-21.7345
-21.7334
-21.7339
-21.7319
-21.7331
-21.73
-21.7323
-21.7272
-21.7316
-21.7236
-21.7315
-21.7186
-21.7322
-21.7118
-21.7346
-21.7023
-21.7396
-21.6889
-21.7487
-21.67
-21.7637
-21.6434
-21.7873
-21.6061
-21.8226
-21.5548
-21.8734
-21.4855
-21.9437
-21.3939
-22.0378
-21.2758
-22.16
-21.1271
-22.314
-20.9444
-22.503
-20.7246
-22.7297
-20.4656
-22.9958
-20.1658
-23.3028
-19.8242
-23.6515
-19.4409
-24.0416
-19.0162
-24.4726
-18.5511
-24.9434
-18.0466
-25.4518
-17.5052
-25.9956
-16.9292
-26.5723
-16.3209
-27.1792
-15.6825
-27.8131
-15.0189
-28.4707
-14.3316
-29.1476
-13.6257
-29.839
-12.9073
-30.5413
-12.1798
-31.2511
-11.4472
-31.9644
-10.7121
-32.6789
-9.97819
-33.3897
-9.24967
-34.0917
-8.53123
-34.7806
-7.82743
-35.4522
-7.14259
-36.1115
-6.47075
-36.7565
-5.81665
-37.382
-5.18254
-37.9835
-4.57374
-38.5562
-3.99453
-39.097
-3.44962
-19.6168
-19.6164
-19.6168
-19.6155
-19.6166
-19.6142
-19.6161
-19.6122
-19.6156
-19.6095
-19.6152
-19.6058
-19.6152
-19.6007
-19.616
-19.5938
-19.6182
-19.5842
-19.6229
-19.571
-19.6311
-19.5527
-19.6447
-19.5275
-19.6656
-19.4931
-19.6964
-19.447
-19.7397
-19.3865
-19.7983
-19.3088
-19.8748
-19.2114
-19.9715
-19.0922
-20.0902
-18.9497
-20.2324
-18.7828
-20.3986
-18.5912
-20.5888
-18.375
-20.8023
-18.1349
-21.0382
-17.8716
-21.2958
-17.5851
-21.5749
-17.2777
-21.8732
-16.9517
-22.1912
-16.6065
-22.5254
-16.2453
-22.8742
-15.8706
-23.2349
-15.4852
-23.6045
-15.0926
-23.9799
-14.6963
-24.3582
-14.2997
-24.7371
-13.9044
-25.1145
-13.5114
-25.4864
-13.1247
-25.8481
-12.7505
-26.1949
-12.3921
-26.5315
-12.0451
-26.8546
-11.7129
-27.1611
-11.3981
-27.4487
-11.1034
-27.7142
-10.8319
-27.9542
-10.5861
-28.1666
-10.3683
-28.348
-10.1815
-28.4953
-10.0297
-28.6047
-9.91593
-28.6737
-9.84461
-17.3483
-17.3469
-17.3495
-17.345
-17.3506
-17.3425
-17.3519
-17.339
-17.3536
-17.3344
-17.3561
-17.3281
-17.36
-17.3197
-17.3657
-17.3083
-17.3742
-17.2929
-17.3866
-17.2723
-17.4042
-17.245
-17.4287
-17.2093
-17.4617
-17.1635
-17.5049
-17.106
-17.5599
-17.0354
-17.628
-16.9505
-17.7103
-16.8507
-17.8073
-16.7358
-17.9193
-16.6058
-18.0461
-16.4614
-18.1868
-16.3033
-18.3402
-16.1334
-18.5038
-15.9547
-18.6745
-15.7709
-18.8484
-15.5788
-19.0285
-15.3811
-19.2108
-15.1822
-19.3974
-14.9796
-19.5881
-14.7732
-19.7821
-14.5643
-19.9778
-14.3542
-20.1735
-14.1449
-20.3677
-13.9381
-20.5586
-13.7355
-20.7446
-13.5386
-20.9235
-13.3494
-21.0938
-13.17
-21.2538
-13.0006
-21.4023
-12.8432
-21.538
-12.6995
-21.6591
-12.5718
-21.7625
-12.4627
-21.8464
-12.3746
-21.9081
-12.3103
-21.9448
-12.2722
-21.9546
-12.2643
-21.933
-12.2888
-21.8763
-12.3485
-21.7798
-12.4465
-21.6383
-12.5883
-15.0166
-15.0127
-15.0204
-15.0081
-15.0247
-15.0026
-15.0297
-14.9955
-15.0361
-14.9865
-15.0444
-14.9749
-15.055
-14.9602
-15.0686
-14.9418
-15.0858
-14.919
-15.1073
-14.8912
-15.1339
-14.8577
-15.166
-14.818
-15.2043
-14.7714
-15.2493
-14.7177
-15.3012
-14.6567
-15.3603
-14.5882
-15.4266
-14.5124
-15.4998
-14.4295
-15.5795
-14.3399
-15.6652
-14.2444
-15.7559
-14.1443
-15.8513
-14.0401
-15.9493
-13.9336
-16.049
-13.8249
-16.1499
-13.7136
-16.2528
-13.6012
-16.356
-13.4888
-16.4608
-13.375
-16.5652
-13.2615
-16.6688
-13.1491
-16.7707
-13.0387
-16.8696
-12.9313
-16.9645
-12.828
-17.0542
-12.7296
-17.1374
-12.6374
-17.2129
-12.5528
-17.2796
-12.4774
-17.3359
-12.4124
-17.3802
-12.3599
-17.411
-12.3214
-17.4268
-12.2984
-17.4262
-12.2921
-17.4079
-12.3036
-17.3708
-12.3334
-17.3142
-12.3817
-17.2387
-12.4488
-17.1446
-12.5339
-17.0335
-12.6375
-16.9083
-12.7577
-16.7743
-12.8903
-12.6707
-12.6671
-12.6743
-12.663
-12.6785
-12.6579
-12.6836
-12.6514
-12.6902
-12.6429
-12.6988
-12.6321
-12.7097
-12.6186
-12.7232
-12.602
-12.7398
-12.5821
-12.7596
-12.5588
-12.7828
-12.5317
-12.8095
-12.501
-12.8399
-12.4665
-12.8738
-12.4283
-12.9113
-12.3865
-12.9522
-12.3412
-12.9964
-12.2926
-13.0437
-12.2408
-13.0939
-12.1859
-13.1469
-12.1283
-13.2022
-12.0685
-13.2594
-12.0073
-13.3163
-11.9459
-13.3734
-11.8839
-13.431
-11.8216
-13.4884
-11.7594
-13.5455
-11.6978
-13.6017
-11.637
-13.6562
-11.5778
-13.7082
-11.521
-13.7572
-11.4671
-13.8024
-11.4172
-13.8428
-11.3721
-13.8777
-11.3328
-13.9059
-11.3004
-13.9265
-11.276
-13.9386
-11.2606
-13.9409
-11.2553
-13.9324
-11.261
-13.9123
-11.2788
-13.8799
-11.3094
-13.8344
-11.3539
-13.775
-11.4132
-13.7004
-11.4882
-13.6096
-11.5798
-13.5024
-11.6887
-13.3781
-11.8136
-13.2382
-11.955
-13.081
-12.1142
-12.9116
-12.285
-10.3354
-10.3329
-10.3379
-10.3301
-10.3409
-10.3267
-10.3446
-10.3223
-10.3493
-10.3166
-10.3555
-10.3094
-10.3631
-10.3006
-10.3726
-10.2898
-10.3839
-10.2771
-10.3972
-10.2624
-10.4125
-10.2456
-10.4298
-10.2268
-10.449
-10.2061
-10.4701
-10.1835
-10.493
-10.1591
-10.5175
-10.1332
-10.5435
-10.1057
-10.5707
-10.077
-10.5991
-10.0472
-10.6284
-10.0165
-10.6583
-9.985
-10.6891
-9.9528
-10.7198
-9.92047
-10.7505
-9.88823
-10.7808
-9.85668
-10.8101
-9.82601
-10.8383
-9.79664
-10.8645
-9.76929
-10.8885
-9.7444
-10.9096
-9.72252
-10.9271
-9.70435
-10.9406
-9.69056
-10.9493
-9.68198
-10.9526
-9.6793
-10.9496
-9.68321
-10.9396
-9.69445
-10.9221
-9.71368
-10.8962
-9.7415
-10.8614
-9.77853
-10.817
-9.82545
-10.7625
-9.88264
-10.6976
-9.95021
-10.6228
-10.0268
-10.5387
-10.1122
-10.4451
-10.2075
-10.3406
-10.3171
-10.216
-10.4492
-10.0732
-10.5955
-9.91828
-10.7521
-9.75591
-10.9152
-8.0193
-8.01787
-8.02079
-8.01632
-8.02255
-8.01445
-8.02475
-8.0121
-8.02758
-8.00909
-8.03118
-8.00528
-8.03569
-8.00054
-8.04123
-7.99477
-8.04788
-7.98789
-8.0557
-7.97986
-8.06472
-7.97066
-8.07494
-7.96029
-8.08632
-7.94881
-8.0988
-7.93626
-8.11231
-7.92275
-8.12672
-7.90839
-8.14193
-7.89331
-8.15776
-7.87767
-8.17404
-7.86165
-8.19058
-7.84545
-8.20719
-7.82932
-8.22372
-7.81335
-8.23982
-7.79791
-8.25529
-7.7833
-8.26976
-7.76991
-8.28286
-7.75806
-8.29425
-7.74796
-8.30352
-7.7402
-8.31046
-7.7351
-8.31458
-7.73293
-8.31551
-7.73412
-8.31292
-7.73901
-8.30646
-7.74803
-8.29575
-7.76148
-8.28041
-7.77967
-8.2601
-7.80289
-8.23446
-7.83163
-8.20306
-7.86615
-8.16556
-7.90652
-8.12201
-7.95328
-8.07145
-8.00827
-8.01044
-8.07858
-7.93261
-8.16305
-7.84254
-8.2587
-7.7422
-8.36377
-7.63304
-8.47684
-7.51651
-8.59603
-7.39533
-8.71929
-7.27106
-8.84475
-7.14506
-8.97145
-5.72306
-5.72235
-5.72384
-5.72162
-5.72478
-5.72077
-5.72597
-5.71971
-5.72751
-5.71834
-5.72948
-5.71658
-5.73198
-5.71433
-5.73508
-5.71151
-5.73886
-5.70806
-5.74336
-5.70393
-5.74864
-5.69908
-5.7547
-5.69351
-5.76154
-5.68723
-5.76913
-5.68028
-5.77742
-5.67272
-5.78633
-5.66465
-5.79575
-5.65617
-5.80556
-5.64743
-5.81562
-5.63858
-5.82577
-5.62981
-5.83583
-5.62131
-5.84559
-5.61327
-5.85479
-5.60597
-5.86325
-5.59963
-5.87066
-5.5945
-5.87682
-5.59085
-5.88142
-5.58882
-5.88418
-5.58877
-5.88497
-5.59095
-5.88346
-5.59554
-5.87941
-5.60278
-5.87258
-5.61291
-5.86272
-5.62622
-5.84955
-5.64301
-5.83266
-5.66378
-5.8115
-5.68902
-5.78568
-5.71948
-5.75387
-5.75758
-5.7116
-5.80736
-5.65887
-5.86687
-5.59694
-5.93517
-5.52675
-6.01128
-5.44989
-6.09288
-5.36819
-6.17849
-5.28317
-6.26663
-5.19628
-6.35604
-5.10887
-6.44559
-5.02176
-6.53424
-4.93611
-6.62078
-4.85276
-6.70462
-3.44373
-3.4434
-3.44412
-3.44309
-3.44461
-3.44275
-3.44526
-3.44232
-3.44612
-3.44176
-3.44724
-3.44101
-3.44868
-3.44
-3.45049
-3.43867
-3.45275
-3.43697
-3.45548
-3.43485
-3.45874
-3.43228
-3.46255
-3.42924
-3.46692
-3.42574
-3.47183
-3.42179
-3.47726
-3.41744
-3.48314
-3.41276
-3.4894
-3.40782
-3.49595
-3.40275
-3.50267
-3.39767
-3.50943
-3.39271
-3.51608
-3.38804
-3.52245
-3.38382
-3.52835
-3.38024
-3.53363
-3.37748
-3.53805
-3.37572
-3.54144
-3.37518
-3.54356
-3.37599
-3.54417
-3.37843
-3.54313
-3.38276
-3.54015
-3.38921
-3.53495
-3.39808
-3.52722
-3.40976
-3.51644
-3.4248
-3.502
-3.44381
-3.48332
-3.4679
-3.45821
-3.50031
-3.42431
-3.54085
-3.38278
-3.58865
-3.33442
-3.64251
-3.28094
-3.70091
-3.22374
-3.7625
-3.1641
-3.82597
-3.10316
-3.89031
-3.04186
-3.95449
-2.98115
-4.01759
-2.92194
-4.07875
-2.86514
-4.13716
-2.81149
-4.19198
-2.76182
-4.24234
-2.71682
-4.28767
-1.17734
-1.17719
-1.17755
-1.17706
-1.17783
-1.17694
-1.17822
-1.17679
-1.17875
-1.17658
-1.17945
-1.17627
-1.18036
-1.17582
-1.18153
-1.17519
-1.183
-1.17434
-1.18481
-1.17322
-1.18698
-1.17181
-1.18956
-1.17009
-1.19254
-1.16806
-1.19592
-1.16573
-1.19969
-1.16313
-1.20379
-1.16031
-1.20818
-1.15733
-1.21277
-1.15429
-1.21748
-1.15128
-1.2222
-1.14841
-1.22679
-1.14582
-1.23111
-1.14364
-1.23504
-1.14204
-1.23842
-1.14116
-1.24104
-1.14117
-1.24274
-1.14227
-1.2433
-1.14467
-1.24245
-1.14864
-1.23998
-1.15445
-1.23557
-1.16251
-1.22873
-1.17336
-1.21901
-1.18737
-1.20579
-1.20576
-1.18676
-1.23099
-1.1613
-1.26232
-1.13008
-1.29894
-1.09421
-1.33959
-1.0549
-1.38312
-1.01328
-1.4285
-0.97038
-1.47478
-0.927145
-1.52109
-0.884387
-1.56659
-0.842837
-1.61061
-0.80317
-1.6525
-0.765939
-1.69157
-0.731759
-1.72722
-0.701349
-1.75879
-0.675363
-1.7856
-0.654486
-1.807
-0.639302
-1.82241
1.07993
1.08001
1.0798
1.08006
1.07962
1.0801
1.07935
1.08014
1.07899
1.08021
1.0785
1.08034
1.07786
1.08054
1.07703
1.08087
1.07598
1.08133
1.07469
1.08197
1.07312
1.08281
1.07127
1.08386
1.06911
1.08512
1.06667
1.08657
1.06395
1.0882
1.061
1.08995
1.05786
1.09178
1.05461
1.0936
1.05131
1.09533
1.04808
1.09687
1.04502
1.09809
1.04227
1.09886
1.03994
1.09903
1.03822
1.09845
1.03728
1.09695
1.03728
1.09436
1.03842
1.09041
1.04103
1.08473
1.0455
1.07696
1.05207
1.06681
1.06146
1.05279
1.0757
1.03367
1.09459
1.01017
1.1176
0.983033
1.14359
0.953315
1.17162
0.921869
1.20091
0.889322
1.23083
0.856492
1.26082
0.823892
1.29024
0.792097
1.31851
0.761737
1.34495
0.733545
1.36885
0.70823
1.38945
0.685823
1.4067
0.667073
1.42075
0.651802
1.431
0.640593
1.43691
0.634012
1.43794
0.632546
1.43356
0.636751
3.33138
3.33144
3.33129
3.33146
3.33115
3.33148
3.33095
3.33149
3.33067
3.33152
3.33029
3.3316
3.32979
3.33173
3.32915
3.33194
3.32834
3.33227
3.32734
3.33272
3.32613
3.3333
3.32472
3.33403
3.32309
3.33489
3.32128
3.33585
3.3193
3.3369
3.3172
3.33797
3.31503
3.33902
3.31284
3.33997
3.31072
3.34074
3.30876
3.34123
3.30706
3.34132
3.30576
3.34088
3.30497
3.33979
3.30487
3.33784
3.30567
3.33481
3.30764
3.33045
3.31092
3.32478
3.31563
3.31728
3.32285
3.30637
3.33343
3.29212
3.34714
3.27486
3.3636
3.25528
3.38216
3.23397
3.40207
3.21167
3.42258
3.18913
3.44294
3.16709
3.4624
3.1454
3.48103
3.12476
3.49836
3.10558
3.51456
3.08764
3.52923
3.07139
3.54195
3.05727
3.55231
3.04561
3.55995
3.03675
3.56463
3.03106
3.566
3.02892
3.56362
3.03072
3.55711
3.03688
3.54607
3.04771
3.53016
3.06356
5.57966
5.57971
5.57958
5.57974
5.57947
5.57977
5.57929
5.5798
5.57905
5.57985
5.57873
5.57994
5.5783
5.58008
5.57776
5.5803
5.57709
5.5806
5.57628
5.58098
5.57532
5.58146
5.57423
5.58201
5.57301
5.58261
5.57171
5.58324
5.57035
5.58384
5.56899
5.58437
5.56768
5.58476
5.5665
5.58494
5.56549
5.58484
5.56475
5.58439
5.56435
5.58347
5.56443
5.58191
5.56517
5.57958
5.56666
5.5764
5.56907
5.57211
5.57297
5.56546
5.57944
5.55661
5.58793
5.54599
5.59813
5.53421
5.60908
5.52105
5.62104
5.50714
5.63323
5.49315
5.64589
5.47887
5.65861
5.4646
5.6711
5.45069
5.68302
5.43735
5.69414
5.4247
5.70439
5.41312
5.71356
5.40274
5.72134
5.39384
5.7275
5.38668
5.73173
5.38159
5.7338
5.37873
5.73335
5.37853
5.73009
5.38127
5.7237
5.38734
5.71384
5.39703
5.70024
5.41054
5.68274
5.42802
5.66119
5.4496
7.82676
7.82681
7.82669
7.82684
7.82658
7.82688
7.82644
7.82692
7.82624
7.82699
7.82599
7.82708
7.82567
7.82721
7.82527
7.82738
7.82479
7.82759
7.82423
7.82784
7.82361
7.82811
7.82293
7.82839
7.82221
7.82866
7.82149
7.82887
7.8208
7.829
7.82019
7.82898
7.81971
7.82877
7.81942
7.82831
7.81939
7.82751
7.81968
7.82631
7.82034
7.82468
7.82144
7.82248
7.82327
7.81918
7.82629
7.81475
7.83042
7.8091
7.83585
7.8021
7.84237
7.79421
7.84967
7.78583
7.85731
7.77714
7.86509
7.76817
7.873
7.75909
7.88096
7.75003
7.88893
7.741
7.89669
7.73221
7.90405
7.72394
7.91078
7.7163
7.91677
7.70949
7.92181
7.70372
7.92572
7.69918
7.92818
7.69618
7.92895
7.69499
7.92774
7.69597
7.92448
7.69908
7.91885
7.70442
7.91089
7.71222
7.90037
7.72268
7.88706
7.7361
7.87061
7.75277
7.85064
7.77281
7.82742
7.79617
10.074
10.0741
10.074
10.0741
10.0739
10.0741
10.0738
10.0742
10.0737
10.0742
10.0736
10.0742
10.0734
10.0743
10.0732
10.0744
10.0729
10.0745
10.0726
10.0745
10.0723
10.0746
10.072
10.0747
10.0718
10.0747
10.0715
10.0746
10.0713
10.0744
10.0712
10.0742
10.0712
10.0737
10.0714
10.0731
10.0718
10.0721
10.0725
10.0707
10.0738
10.0686
10.0757
10.0659
10.0782
10.0624
10.0814
10.0584
10.0852
10.0539
10.0894
10.049
10.0939
10.0437
10.0987
10.0383
10.1037
10.0326
10.1088
10.0268
10.114
10.021
10.1192
10.0151
10.1244
10.0093
10.1292
10.004
10.1333
9.99957
10.1367
9.99585
10.1393
9.99301
10.1409
9.9912
10.1413
9.99059
10.1404
9.9914
10.1379
9.99386
10.1335
9.99851
10.1271
10.0054
10.1186
10.0139
10.1084
10.0242
10.0964
10.0363
10.0826
10.05
10.0672
10.0658
10.0483
10.0855
10.0266
10.1075
12.3224
12.3224
12.3223
12.3224
12.3223
12.3224
12.3223
12.3224
12.3222
12.3224
12.3221
12.3225
12.3221
12.3225
12.322
12.3225
12.3219
12.3226
12.3217
12.3226
12.3216
12.3226
12.3215
12.3226
12.3215
12.3225
12.3214
12.3224
12.3215
12.3222
12.3216
12.3218
12.3218
12.3213
12.3223
12.3205
12.3231
12.3193
12.3243
12.3177
12.3259
12.3157
12.3278
12.3134
12.3301
12.3107
12.3327
12.3078
12.3354
12.3047
12.3383
12.3016
12.3413
12.2983
12.3443
12.295
12.3473
12.2917
12.3503
12.2885
12.3533
12.2853
12.356
12.2823
12.3586
12.2796
12.3608
12.2773
12.3624
12.2757
12.3634
12.2747
12.3636
12.2746
12.363
12.2754
12.3614
12.2772
12.3586
12.2801
12.3547
12.2842
12.3496
12.2898
12.3431
12.2965
12.3353
12.3045
12.3264
12.3137
12.3158
12.3254
12.3021
12.3398
12.2864
12.3561
12.2687
12.3739
12.2499
12.3929
14.5722
14.5722
14.5722
14.5722
14.5721
14.5722
14.5721
14.5722
14.5721
14.5722
14.5721
14.5722
14.5721
14.5723
14.5721
14.5723
14.572
14.5723
14.572
14.5723
14.572
14.5723
14.572
14.5723
14.5721
14.5722
14.5722
14.5721
14.5724
14.5718
14.5727
14.5714
14.5732
14.5708
14.5739
14.5699
14.5749
14.5688
14.5761
14.5674
14.5776
14.5658
14.5792
14.564
14.5811
14.5621
14.583
14.5601
14.585
14.5581
14.5871
14.556
14.5892
14.5539
14.5912
14.5519
14.5932
14.5501
14.595
14.5484
14.5965
14.5469
14.5978
14.5458
14.5988
14.545
14.5993
14.5446
14.5994
14.5447
14.599
14.5454
14.5981
14.5466
14.5964
14.5486
14.5941
14.5512
14.5911
14.5546
14.5872
14.5589
14.5824
14.5641
14.5766
14.5704
14.5693
14.579
14.5595
14.5896
14.548
14.6019
14.535
14.6153
14.5211
14.6296
14.5065
14.6444
14.4915
14.6596
16.8236
16.8236
16.8236
16.8236
16.8236
16.8236
16.8236
16.8236
16.8236
16.8236
16.8236
16.8237
16.8236
16.8237
16.8236
16.8237
16.8237
16.8237
16.8237
16.8237
16.8238
16.8237
16.8239
16.8237
16.824
16.8236
16.8243
16.8234
16.8246
16.8231
16.8251
16.8226
16.8257
16.822
16.8265
16.8212
16.8275
16.8202
16.8286
16.8191
16.8299
16.8179
16.8313
16.8166
16.8328
16.8152
16.8344
16.8137
16.836
16.8123
16.8376
16.8109
16.8392
16.8095
16.8406
16.8083
16.8419
16.8073
16.8431
16.8065
16.8439
16.8059
16.8445
16.8056
16.8448
16.8057
16.8447
16.8062
16.8442
16.807
16.8433
16.8083
16.8419
16.8101
16.84
16.8125
16.8376
16.8155
16.8344
16.8191
16.8305
16.8237
16.8254
16.8299
16.8185
16.8378
16.81
16.8471
16.8004
16.8574
16.79
16.8682
16.7791
16.8795
16.768
16.8909
16.7568
16.9024
16.7456
16.9137
19.0765
19.0766
19.0766
19.0766
19.0766
19.0766
19.0766
19.0766
19.0766
19.0766
19.0766
19.0766
19.0767
19.0767
19.0767
19.0767
19.0768
19.0767
19.0769
19.0767
19.077
19.0767
19.0772
19.0766
19.0774
19.0764
19.0778
19.0762
19.0782
19.0758
19.0788
19.0753
19.0795
19.0748
19.0803
19.074
19.0813
19.0732
19.0823
19.0723
19.0835
19.0713
19.0847
19.0702
19.086
19.0691
19.0874
19.068
19.0887
19.067
19.09
19.066
19.0912
19.0651
19.0923
19.0644
19.0933
19.0638
19.094
19.0634
19.0946
19.0633
19.0948
19.0635
19.0948
19.064
19.0944
19.0648
19.0937
19.066
19.0926
19.0676
19.091
19.0698
19.0889
19.0725
19.0862
19.0758
19.0827
19.0801
19.0781
19.0859
19.0719
19.093
19.0647
19.1009
19.0569
19.1093
19.0486
19.118
19.0402
19.1269
19.0317
19.1356
19.0234
19.1442
19.0154
19.1524
19.0078
19.1602
21.3309
21.3309
21.3309
21.3309
21.3309
21.3309
21.3309
21.3309
21.3309
21.3309
21.331
21.331
21.331
21.331
21.3311
21.331
21.3312
21.331
21.3314
21.3309
21.3315
21.3309
21.3318
21.3307
21.3321
21.3305
21.3325
21.3302
21.3331
21.3298
21.3337
21.3293
21.3344
21.3287
21.3353
21.328
21.3362
21.3273
21.3372
21.3264
21.3384
21.3256
21.3395
21.3247
21.3407
21.3238
21.3418
21.3229
21.343
21.3221
21.3441
21.3214
21.3451
21.3208
21.3459
21.3203
21.3466
21.32
21.3471
21.32
21.3474
21.3201
21.3474
21.3206
21.3472
21.3213
21.3466
21.3225
21.3457
21.3239
21.3443
21.3259
21.3425
21.3283
21.3402
21.3314
21.3371
21.3352
21.3331
21.3403
21.3279
21.3463
21.322
21.3528
21.3157
21.3597
21.3092
21.3666
21.3027
21.3736
21.2963
21.3803
21.2901
21.3867
21.2844
21.3927
21.2792
21.3981
21.2746
21.4028
23.5863
23.5863
23.5863
23.5863
23.5863
23.5863
23.5864
23.5863
23.5864
23.5863
23.5864
23.5863
23.5865
23.5863
23.5866
23.5863
23.5868
23.5863
23.587
23.5862
23.5872
23.586
23.5875
23.5858
23.5879
23.5855
23.5884
23.5852
23.589
23.5847
23.5897
23.5841
23.5905
23.5835
23.5914
23.5828
23.5924
23.582
23.5934
23.5812
23.5945
23.5804
23.5955
23.5796
23.5966
23.5788
23.5977
23.5781
23.5986
23.5774
23.5996
23.5769
23.6004
23.5765
23.601
23.5763
23.6015
23.5762
23.6018
23.5764
23.6018
23.5768
23.6016
23.5775
23.6012
23.5785
23.6003
23.5799
23.5992
23.5816
23.5976
23.5838
23.5956
23.5865
23.593
23.5897
23.5897
23.5939
23.5855
23.5989
23.5807
23.6042
23.5757
23.6098
23.5706
23.6153
23.5655
23.6207
23.5607
23.6259
23.5561
23.6307
23.552
23.635
23.5485
23.6388
23.5456
23.6418
23.5434
23.6441
25.8426
25.8426
25.8426
25.8426
25.8426
25.8426
25.8426
25.8426
25.8427
25.8425
25.8428
25.8425
25.8429
25.8425
25.843
25.8424
25.8432
25.8422
25.8435
25.8421
25.8438
25.8418
25.8443
25.8415
25.8448
25.8411
25.8454
25.8406
25.8461
25.84
25.8469
25.8394
25.8477
25.8387
25.8486
25.8379
25.8496
25.8372
25.8506
25.8364
25.8517
25.8356
25.8527
25.8348
25.8537
25.8341
25.8546
25.8335
25.8554
25.833
25.8562
25.8326
25.8568
25.8323
25.8573
25.8323
25.8576
25.8324
25.8576
25.8328
25.8574
25.8334
25.857
25.8344
25.8563
25.8356
25.8553
25.8371
25.8539
25.839
25.8521
25.8413
25.85
25.8441
25.8474
25.8473
25.8441
25.8514
25.8403
25.8557
25.8363
25.8601
25.8323
25.8645
25.8283
25.8688
25.8246
25.8728
25.8213
25.8764
25.8183
25.8795
25.8159
25.8821
25.8141
25.8841
25.8129
25.8854
25.8125
25.8859
28.0994
28.0994
28.0994
28.0994
28.0995
28.0993
28.0996
28.0993
28.0997
28.0992
28.0998
28.0991
28.1
28.099
28.1002
28.0988
28.1005
28.0985
28.1009
28.0982
28.1014
28.0978
28.1019
28.0974
28.1025
28.0968
28.1032
28.0962
28.104
28.0956
28.1048
28.0949
28.1057
28.0942
28.1066
28.0934
28.1076
28.0926
28.1086
28.0918
28.1095
28.0911
28.1105
28.0904
28.1113
28.0897
28.1122
28.0892
28.1129
28.0888
28.1135
28.0885
28.1139
28.0884
28.1142
28.0885
28.1143
28.0888
28.1142
28.0893
28.1138
28.0901
28.1132
28.0911
28.1123
28.0925
28.1112
28.0941
28.1097
28.096
28.108
28.0983
28.1058
28.1009
28.1034
28.1039
28.1004
28.1074
28.0972
28.1109
28.094
28.1144
28.0909
28.1178
28.0881
28.1209
28.0855
28.1236
28.0834
28.1259
28.0818
28.1277
28.0807
28.129
28.0801
28.1297
28.0801
28.1298
28.0807
28.1293
30.3566
30.3565
30.3567
30.3564
30.3568
30.3563
30.357
30.3562
30.3571
30.356
30.3574
30.3558
30.3577
30.3556
30.358
30.3552
30.3584
30.3549
30.3589
30.3544
30.3595
30.3539
30.3601
30.3534
30.3607
30.3529
30.3614
30.3523
30.3622
30.3516
30.3629
30.3509
30.3637
30.3503
30.3646
30.3496
30.3654
30.3489
30.3662
30.3482
30.3671
30.3476
30.3679
30.347
30.3686
30.3465
30.3692
30.346
30.3698
30.3457
30.3703
30.3455
30.3706
30.3455
30.3708
30.3456
30.3708
30.3459
30.3706
30.3464
30.3703
30.3472
30.3697
30.3481
30.3688
30.3493
30.3678
30.3508
30.3664
30.3525
30.3648
30.3546
30.3629
30.3569
30.3607
30.3595
30.3583
30.3622
30.3558
30.365
30.3533
30.3676
30.3511
30.37
30.3492
30.372
30.3477
30.3737
30.3465
30.3751
30.3457
30.376
30.3453
30.3765
30.3454
30.3765
30.3461
30.3759
30.3473
30.3747
32.614
32.6138
32.6142
32.6136
32.6144
32.6135
32.6146
32.6132
32.6149
32.613
32.6152
32.6127
32.6155
32.6124
32.6159
32.612
32.6164
32.6116
32.6169
32.6111
32.6174
32.6107
32.618
32.6101
32.6186
32.6096
32.6192
32.609
32.6199
32.6084
32.6206
32.6078
32.6214
32.6071
32.6221
32.6065
32.6228
32.6059
32.6236
32.6053
32.6243
32.6047
32.6249
32.6042
32.6255
32.6038
32.6261
32.6034
32.6266
32.6032
32.6269
32.603
32.6272
32.603
32.6273
32.6031
32.6272
32.6034
32.627
32.6039
32.6267
32.6046
32.6261
32.6054
32.6254
32.6064
32.6244
32.6077
32.6233
32.6091
32.622
32.6107
32.6205
32.6125
32.6189
32.6144
32.6171
32.6164
32.6153
32.6184
32.6136
32.6202
32.6121
32.6218
32.6109
32.6231
32.61
32.6241
32.6093
32.6249
32.609
32.6253
32.6091
32.6253
32.6096
32.6249
32.6105
32.624
32.612
32.6226
34.8715
34.8712
34.8717
34.8709
34.872
34.8707
34.8723
34.8704
34.8726
34.8701
34.8729
34.8698
34.8733
34.8694
34.8737
34.869
34.8741
34.8686
34.8746
34.8682
34.8751
34.8677
34.8756
34.8672
34.8762
34.8667
34.8768
34.8661
34.8775
34.8655
34.8781
34.8649
34.8788
34.8643
34.8794
34.8637
34.8801
34.8631
34.8808
34.8626
34.8814
34.8621
34.882
34.8616
34.8825
34.8612
34.883
34.8609
34.8834
34.8606
34.8837
34.8605
34.8839
34.8605
34.884
34.8606
34.8839
34.8608
34.8837
34.8612
34.8834
34.8617
34.8829
34.8624
34.8823
34.8633
34.8815
34.8642
34.8806
34.8654
34.8796
34.8666
34.8784
34.8679
34.8772
34.8692
34.876
34.8706
34.8749
34.8719
34.8738
34.873
34.8729
34.874
34.8722
34.8748
34.8717
34.8754
34.8713
34.8758
34.8713
34.8759
34.8716
34.8756
34.8723
34.875
34.8732
34.8741
34.8745
34.8727
37.1288
37.1285
37.1291
37.1282
37.1294
37.1279
37.1297
37.1276
37.1301
37.1273
37.1304
37.1269
37.1308
37.1266
37.1312
37.1262
37.1317
37.1257
37.1321
37.1253
37.1326
37.1248
37.1331
37.1243
37.1337
37.1238
37.1343
37.1232
37.1349
37.1226
37.1355
37.1221
37.1361
37.1215
37.1367
37.1209
37.1374
37.1203
37.138
37.1198
37.1385
37.1193
37.1391
37.1188
37.1396
37.1184
37.14
37.1181
37.1404
37.1178
37.1407
37.1177
37.1408
37.1176
37.1409
37.1176
37.1409
37.1178
37.1408
37.1181
37.1405
37.1185
37.1401
37.119
37.1396
37.1197
37.139
37.1204
37.1383
37.1212
37.1375
37.1222
37.1366
37.1231
37.1357
37.1241
37.1349
37.1251
37.1341
37.1259
37.1333
37.1267
37.1327
37.1274
37.1322
37.1279
37.1319
37.1283
37.1318
37.1284
37.1319
37.1283
37.1323
37.1279
37.133
37.1272
37.1339
37.1262
37.1352
37.125
39.3861
39.3858
39.3864
39.3854
39.3867
39.3851
39.3871
39.3847
39.3874
39.3844
39.3878
39.384
39.3882
39.3836
39.3886
39.3832
39.389
39.3828
39.3895
39.3823
39.39
39.3818
39.3905
39.3813
39.3911
39.3808
39.3916
39.3802
39.3922
39.3797
39.3928
39.3791
39.3934
39.3785
39.394
39.3779
39.3946
39.3774
39.3952
39.3768
39.3957
39.3763
39.3962
39.3758
39.3967
39.3754
39.3971
39.3751
39.3975
39.3748
39.3978
39.3746
39.398
39.3744
39.3981
39.3744
39.3981
39.3745
39.398
39.3746
39.3979
39.3749
39.3976
39.3752
39.3972
39.3757
39.3968
39.3762
39.3963
39.3768
39.3957
39.3775
39.395
39.3782
39.3943
39.3789
39.3937
39.3795
39.3931
39.3801
39.3926
39.3807
39.3922
39.3811
39.3919
39.3814
39.3917
39.3815
39.3917
39.3815
39.3919
39.3814
39.3922
39.381
39.3928
39.3805
39.3935
39.3798
39.3944
39.3789
41.6432
41.6428
41.6435
41.6425
41.6439
41.6421
41.6442
41.6417
41.6446
41.6414
41.645
41.641
41.6454
41.6406
41.6458
41.6402
41.6463
41.6397
41.6467
41.6392
41.6472
41.6387
41.6477
41.6382
41.6483
41.6377
41.6488
41.6371
41.6494
41.6365
41.65
41.6359
41.6506
41.6353
41.6512
41.6348
41.6517
41.6342
41.6523
41.6336
41.6529
41.6331
41.6534
41.6326
41.6538
41.6322
41.6543
41.6318
41.6546
41.6314
41.655
41.6311
41.6552
41.631
41.6554
41.6308
41.6554
41.6308
41.6555
41.6308
41.6554
41.631
41.6552
41.6312
41.655
41.6314
41.6547
41.6318
41.6543
41.6322
41.6539
41.6326
41.6534
41.6331
41.653
41.6335
41.6525
41.634
41.6521
41.6344
41.6517
41.6347
41.6514
41.635
41.6512
41.6352
41.6511
41.6353
41.651
41.6353
41.6511
41.6353
41.6513
41.6351
41.6516
41.6348
41.6519
41.6345
41.6523
41.6341
43.9001
43.8997
43.9005
43.8994
43.9009
43.899
43.9012
43.8986
43.9016
43.8982
43.902
43.8978
43.9024
43.8974
43.9029
43.8969
43.9033
43.8965
43.9038
43.896
43.9043
43.8954
43.9048
43.8949
43.9054
43.8944
43.9059
43.8938
43.9065
43.8932
43.9071
43.8926
43.9077
43.892
43.9082
43.8914
43.9088
43.8908
43.9094
43.8902
43.9099
43.8897
43.9105
43.8891
43.911
43.8887
43.9114
43.8882
43.9118
43.8878
43.9122
43.8875
43.9124
43.8872
43.9127
43.887
43.9128
43.8869
43.9129
43.8868
43.9129
43.8868
43.9128
43.8869
43.9127
43.887
43.9125
43.8872
43.9123
43.8875
43.912
43.8877
43.9117
43.888
43.9113
43.8884
43.911
43.8887
43.9107
43.889
43.9104
43.8892
43.9101
43.8895
43.9099
43.8897
43.9097
43.8898
43.9096
43.89
43.9095
43.89
43.9094
43.8901
43.9093
43.8902
43.9093
43.8902
43.9093
43.8903
46.1569
46.1565
46.1573
46.1561
46.1577
46.1557
46.1581
46.1553
46.1585
46.1549
46.1589
46.1544
46.1593
46.154
46.1598
46.1535
46.1602
46.153
46.1607
46.1525
46.1612
46.152
46.1618
46.1515
46.1623
46.1509
46.1629
46.1503
46.1634
46.1497
46.164
46.1491
46.1646
46.1485
46.1652
46.1478
46.1658
46.1472
46.1664
46.1466
46.167
46.146
46.1675
46.1455
46.168
46.145
46.1685
46.1445
46.1689
46.144
46.1693
46.1436
46.1697
46.1433
46.1699
46.143
46.1702
46.1428
46.1703
46.1426
46.1704
46.1425
46.1704
46.1425
46.1704
46.1425
46.1703
46.1426
46.1701
46.1428
46.1699
46.1429
46.1697
46.1432
46.1694
46.1434
46.1691
46.1437
46.1688
46.1439
46.1685
46.1442
46.1682
46.1445
46.1678
46.1448
46.1675
46.1451
46.1672
46.1454
46.1669
46.1457
46.1666
46.146
46.1662
46.1463
46.1658
46.1467
46.1654
46.1472
48.4135
48.4131
48.4139
48.4127
48.4143
48.4123
48.4147
48.4118
48.4151
48.4114
48.4156
48.411
48.416
48.4105
48.4165
48.41
48.417
48.4095
48.4175
48.409
48.418
48.4084
48.4185
48.4079
48.4191
48.4073
48.4197
48.4067
48.4203
48.406
48.4209
48.4054
48.4215
48.4048
48.4221
48.4041
48.4227
48.4035
48.4233
48.4028
48.4239
48.4022
48.4245
48.4016
48.425
48.4011
48.4256
48.4005
48.426
48.4
48.4265
48.3996
48.4268
48.3992
48.4272
48.3988
48.4274
48.3986
48.4277
48.3983
48.4278
48.3982
48.4279
48.3981
48.4279
48.398
48.4279
48.398
48.4278
48.3981
48.4276
48.3982
48.4274
48.3984
48.4271
48.3986
48.4268
48.3989
48.4265
48.3992
48.4261
48.3995
48.4257
48.3999
48.4253
48.4003
48.4248
48.4008
48.4243
48.4013
48.4238
48.4018
48.4232
48.4024
48.4225
48.4031
48.4218
48.4038
48.421
48.4047
50.67
50.6696
50.6704
50.6691
50.6708
50.6687
50.6713
50.6683
50.6717
50.6678
50.6722
50.6673
50.6726
50.6669
50.6731
50.6664
50.6736
50.6658
50.6741
50.6653
50.6747
50.6647
50.6752
50.6641
50.6758
50.6635
50.6764
50.6629
50.677
50.6623
50.6776
50.6616
50.6783
50.6609
50.6789
50.6603
50.6795
50.6596
50.6802
50.6589
50.6808
50.6583
50.6814
50.6576
50.682
50.657
50.6825
50.6565
50.683
50.6559
50.6835