/*--------------------------------*- C++ -*----------------------------------*\
  =========                 |
  \\      /  F ield         | OpenFOAM: The Open Source CFD Toolbox
   \\    /   O peration     | Website:  https://openfoam.org
    \\  /    A nd           | Version:  10
     \\/     M anipulation  |
\*---------------------------------------------------------------------------*/
FoamFile
{
    format      ascii;
    class       surfaceScalarField;
    location    "0.002";
    object      phi;
}
// * * * * * * * * * * * * * * * * * * * * * * * * * * * * * * * * * * * * * //

dimensions      [0 3 -1 0 0 0 0];

internalField   nonuniform List<scalar> 
19800
(
4.95026e-13
-4.95026e-13
9.90127e-13
-4.95101e-13
1.48537e-12
-4.9524e-13
1.98081e-12
-4.95441e-13
2.47654e-12
-4.95728e-13
2.97259e-12
-4.96054e-13
3.46908e-12
-4.96494e-13
3.96603e-12
-4.96941e-13
4.46357e-12
-4.97543e-13
4.96167e-12
-4.98101e-13
5.46055e-12
-4.98877e-13
5.96008e-12
-4.99533e-13
6.46058e-12
-5.00504e-13
6.96182e-12
-5.01234e-13
7.46425e-12
-5.02435e-13
7.96746e-12
-5.03202e-13
8.47214e-12
-5.04682e-13
8.97756e-12
-5.05428e-13
9.48483e-12
-5.07264e-13
9.99273e-12
-5.07899e-13
1.05029e-11
-5.10211e-13
1.10135e-11
-5.10596e-13
1.15271e-11
-5.1356e-13
1.20406e-11
-5.13483e-13
1.2558e-11
-5.17373e-13
1.30745e-11
-5.16502e-13
1.35962e-11
-5.21737e-13
1.41158e-11
-5.1956e-13
1.46425e-11
-5.26794e-13
1.5165e-11
-5.22502e-13
1.56978e-11
-5.32767e-13
1.62229e-11
-5.25072e-13
1.67629e-11
-5.39991e-13
1.72898e-11
-5.26876e-13
1.78387e-11
-5.4899e-13
1.83661e-11
-5.27323e-13
1.89266e-11
-5.60499e-13
1.94521e-11
-5.25566e-13
2.00276e-11
-5.7548e-13
2.05481e-11
-5.20516e-13
2.11434e-11
-5.95236e-13
2.16542e-11
-5.10831e-13
2.22755e-11
-6.21345e-13
2.27704e-11
-4.94904e-13
2.3426e-11
-6.55561e-13
2.38969e-11
-4.70937e-13
2.45968e-11
-6.99856e-13
2.50338e-11
-4.37023e-13
2.57903e-11
-7.56501e-13
2.61814e-11
-3.91115e-13
2.70093e-11
-8.27905e-13
2.73403e-11
-3.30946e-13
2.82569e-11
-9.16574e-13
2.8511e-11
-2.54126e-13
2.95365e-11
-1.0255e-12
2.96953e-11
-1.58774e-13
3.08529e-11
-1.15761e-12
3.09002e-11
-4.72775e-14
3.22168e-11
-1.31667e-12
3.20889e-11
1.27972e-13
3.35948e-11
-1.50593e-12
3.32623e-11
3.32511e-13
3.49902e-11
-1.72789e-12
3.44291e-11
5.61074e-13
3.64149e-11
-1.98577e-12
3.55911e-11
8.23777e-13
3.78751e-11
-2.28399e-12
3.67492e-11
1.12586e-12
3.9375e-11
-2.62576e-12
3.7902e-11
1.47294e-12
4.09179e-11
-3.01592e-12
3.90486e-11
1.86939e-12
4.25068e-11
-3.45822e-12
4.01878e-11
2.31901e-12
4.4145e-11
-3.95725e-12
4.13196e-11
2.82541e-12
4.58381e-11
-4.51851e-12
4.24453e-11
3.39282e-12
4.75913e-11
-5.146e-12
4.35668e-11
4.02453e-12
4.9415e-11
-5.84825e-12
4.46905e-11
4.72447e-12
5.13204e-11
-6.62984e-12
4.58247e-11
5.49566e-12
5.33158e-11
-7.49105e-12
4.69735e-11
6.34226e-12
5.5403e-11
-8.42947e-12
4.81346e-11
7.2684e-12
5.75847e-11
-9.45016e-12
4.93075e-11
8.27725e-12
5.98609e-11
-1.05534e-11
5.04898e-11
9.37109e-12
6.22346e-11
-1.17449e-11
5.16809e-11
1.05537e-11
6.47094e-11
-1.30285e-11
5.28808e-11
1.18286e-11
6.72876e-11
-1.44068e-11
5.40897e-11
1.31979e-11
6.99703e-11
-1.58806e-11
1.46633e-11
3.93651e-13
-8.88677e-13
7.87293e-13
-8.88742e-13
1.18098e-12
-8.88923e-13
1.57464e-12
-8.89106e-13
1.96838e-12
-8.89464e-13
2.36209e-12
-8.89766e-13
2.75591e-12
-8.9031e-13
3.14968e-12
-8.9072e-13
3.5436e-12
-8.91457e-13
3.93746e-12
-8.91959e-13
4.33149e-12
-8.92912e-13
4.72544e-12
-8.93479e-13
5.11961e-12
-8.94672e-13
5.51363e-12
-8.95264e-13
5.90795e-12
-8.96746e-13
6.30205e-12
-8.97309e-13
6.69651e-12
-8.99137e-13
7.09067e-12
-8.99586e-13
7.48526e-12
-9.01859e-13
7.87944e-12
-9.02081e-13
8.27417e-12
-9.04941e-13
8.66833e-12
-9.04752e-13
9.06318e-12
-9.0841e-13
9.45724e-12
-9.07548e-13
9.8522e-12
-9.12332e-13
1.02461e-11
-9.10381e-13
1.06412e-11
-9.16819e-13
1.10347e-11
-9.13108e-13
1.143e-11
-9.22058e-13
1.18229e-11
-9.15459e-13
1.22185e-11
-9.28349e-13
1.26104e-11
-9.17005e-13
1.30067e-11
-9.36254e-13
1.33969e-11
-9.17034e-13
1.37945e-11
-9.46602e-13
1.41816e-11
-9.14478e-13
1.45818e-11
-9.60616e-13
1.4964e-11
-9.07832e-13
1.53685e-11
-9.79934e-13
1.57431e-11
-8.95175e-13
1.61545e-11
-1.00659e-12
1.65178e-11
-8.74172e-13
1.69393e-11
-1.04281e-12
1.72865e-11
-8.42081e-13
1.77221e-11
-1.09115e-12
1.80469e-11
-7.9573e-13
1.85011e-11
-1.15412e-12
1.87958e-11
-7.31699e-13
1.92737e-11
-1.23438e-12
1.95313e-11
-6.48771e-13
2.00379e-11
-1.33449e-12
2.02537e-11
-5.46697e-13
2.07937e-11
-1.45665e-12
2.0966e-11
-4.2643e-13
2.15433e-11
-1.60279e-12
2.1675e-11
-2.9042e-13
2.22918e-11
-1.77447e-12
2.239e-11
-1.45439e-13
2.3047e-11
-1.97365e-12
2.31631e-11
1.18535e-14
2.38596e-11
-2.2024e-12
2.39252e-11
2.66856e-13
2.46615e-11
-2.4642e-12
2.46811e-11
5.41455e-13
2.54554e-11
-2.76e-12
2.54357e-11
8.43458e-13
2.6243e-11
-3.09127e-12
2.61894e-11
1.17944e-12
2.70234e-11
-3.45978e-12
2.69443e-11
1.5521e-12
2.77937e-11
-3.86534e-12
2.77011e-11
1.96194e-12
2.8553e-11
-4.31006e-12
2.8462e-11
2.40996e-12
2.92986e-11
-4.7938e-12
2.92261e-11
2.89787e-12
3.00257e-11
-5.31811e-12
2.99929e-11
3.42562e-12
3.07298e-11
-5.88288e-12
3.0761e-11
3.99334e-12
3.1401e-11
-6.48827e-12
3.15232e-11
4.60225e-12
3.20274e-11
-7.13405e-12
3.22718e-11
5.25134e-12
3.25992e-11
-7.81854e-12
3.30017e-11
5.9398e-12
3.31125e-11
-8.5403e-12
3.37148e-11
6.66617e-12
3.35663e-11
-9.30169e-12
3.44116e-11
7.432e-12
3.39616e-11
-1.01035e-11
3.50939e-11
8.23879e-12
3.42835e-11
-1.09344e-11
3.57622e-11
9.07507e-12
3.45243e-11
-1.17907e-11
3.64155e-11
9.93752e-12
3.46782e-11
-1.26695e-11
3.7053e-11
1.0823e-11
3.47428e-11
-1.35704e-11
1.17301e-11
2.75634e-13
-1.16431e-12
5.51218e-13
-1.16433e-12
8.26778e-13
-1.16448e-12
1.10216e-12
-1.16449e-12
1.37751e-12
-1.16481e-12
1.65255e-12
-1.16481e-12
1.92755e-12
-1.1653e-12
2.20212e-12
-1.16529e-12
2.47662e-12
-1.16597e-12
2.75058e-12
-1.16592e-12
3.02446e-12
-1.16679e-12
3.29767e-12
-1.16669e-12
3.57077e-12
-1.16777e-12
3.84313e-12
-1.16762e-12
4.11528e-12
-1.16889e-12
4.38666e-12
-1.16869e-12
4.65765e-12
-1.17013e-12
4.92798e-12
-1.16992e-12
5.19756e-12
-1.17144e-12
5.4668e-12
-1.17132e-12
5.73464e-12
-1.17278e-12
6.00282e-12
-1.17292e-12
6.26851e-12
-1.17411e-12
6.53572e-12
-1.17476e-12
6.79875e-12
-1.17536e-12
7.06519e-12
-1.17682e-12
7.32491e-12
-1.17654e-12
7.59086e-12
-1.17906e-12
7.84656e-12
-1.17776e-12
8.11234e-12
-1.18124e-12
8.36336e-12
-1.17936e-12
8.62923e-12
-1.18288e-12
8.87497e-12
-1.18198e-12
9.14108e-12
-1.18315e-12
9.38114e-12
-1.18667e-12
9.64743e-12
-1.18076e-12
9.88167e-12
-1.19486e-12
1.01479e-11
-1.17409e-12
1.03764e-11
-1.2084e-12
1.06424e-11
-1.16117e-12
1.08651e-11
-1.22931e-12
1.11309e-11
-1.13995e-12
1.13478e-11
-1.25974e-12
1.16141e-11
-1.10842e-12
1.18246e-11
-1.30162e-12
1.20937e-11
-1.06483e-12
1.22963e-11
-1.35668e-12
1.25723e-11
-1.00773e-12
1.2764e-11
-1.42608e-12
1.30504e-11
-9.35185e-13
1.32279e-11
-1.51192e-12
1.35273e-11
-8.46112e-13
1.36856e-11
-1.61502e-12
1.39982e-11
-7.39014e-13
1.41323e-11
-1.73687e-12
1.4454e-11
-6.12102e-13
1.45584e-11
-1.87886e-12
1.48756e-11
-4.62663e-13
1.49438e-11
-2.04181e-12
1.5247e-11
-2.91353e-13
1.52696e-11
-2.22505e-12
1.56438e-11
-1.07262e-13
1.56077e-11
-2.42813e-12
1.60534e-11
9.57466e-14
1.59453e-11
-2.65191e-12
1.64534e-11
3.35332e-13
1.62577e-11
-2.89554e-12
1.68495e-11
5.87667e-13
1.65491e-11
-3.15942e-12
1.72435e-11
8.57679e-13
1.68235e-11
-3.44527e-12
1.76362e-11
1.14924e-12
1.70781e-11
-3.75203e-12
1.80262e-11
1.46188e-12
1.73113e-11
-4.0789e-12
1.84153e-11
1.79386e-12
1.75196e-11
-4.42242e-12
1.88024e-11
2.14286e-12
1.77028e-11
-4.78326e-12
1.91871e-11
2.50897e-12
1.78601e-11
-5.16126e-12
1.95713e-11
2.8911e-12
1.79938e-11
-5.5566e-12
1.99552e-11
3.28992e-12
1.81065e-11
-5.96984e-12
2.034e-11
3.70635e-12
1.82011e-11
-6.40141e-12
2.07264e-11
4.14087e-12
1.82575e-11
-6.83277e-12
2.11119e-11
4.57756e-12
1.82696e-11
-7.26113e-12
2.14936e-11
5.01477e-12
1.82644e-11
-7.70526e-12
2.18734e-11
5.46606e-12
1.82478e-11
-8.16501e-12
2.22521e-11
5.93321e-12
1.82257e-11
-8.6431e-12
2.26314e-11
6.41734e-12
1.81976e-11
-9.1366e-12
6.91753e-12
1.64501e-13
-1.32881e-12
3.2896e-13
-1.32878e-12
4.93346e-13
-1.32887e-12
6.57606e-13
-1.32875e-12
8.21714e-13
-1.32892e-12
9.85624e-13
-1.32872e-12
1.14929e-12
-1.32897e-12
1.31271e-12
-1.32871e-12
1.47574e-12
-1.329e-12
1.63857e-12
-1.32874e-12
1.80078e-12
-1.329e-12
1.96294e-12
-1.32885e-12
2.12409e-12
-1.32892e-12
2.28559e-12
-1.32912e-12
2.44538e-12
-1.32869e-12
2.60632e-12
-1.32963e-12
2.76437e-12
-1.32817e-12
2.92499e-12
-1.33055e-12
3.08075e-12
-1.3272e-12
3.24148e-12
-1.33205e-12
3.39422e-12
-1.32553e-12
3.55566e-12
-1.33437e-12
3.70444e-12
-1.32288e-12
3.86743e-12
-1.33775e-12
4.01108e-12
-1.31901e-12
4.17661e-12
-1.34235e-12
4.3139e-12
-1.31383e-12
4.48298e-12
-1.34813e-12
4.6127e-12
-1.30749e-12
4.78617e-12
-1.35471e-12
4.90739e-12
-1.30058e-12
5.08582e-12
-1.36131e-12
5.19799e-12
-1.29416e-12
5.38157e-12
-1.36672e-12
5.48444e-12
-1.28954e-12
5.67312e-12
-1.36944e-12
5.76659e-12
-1.28832e-12
5.96033e-12
-1.36783e-12
6.04415e-12
-1.29222e-12
6.24317e-12
-1.36019e-12
6.31686e-12
-1.30299e-12
6.52175e-12
-1.34484e-12
6.58439e-12
-1.32238e-12
6.79617e-12
-1.32019e-12
6.84655e-12
-1.352e-12
7.06677e-12
-1.28505e-12
7.10333e-12
-1.39323e-12
7.33487e-12
-1.23927e-12
7.35482e-12
-1.44603e-12
7.60208e-12
-1.18245e-12
7.60039e-12
-1.51023e-12
7.86726e-12
-1.11298e-12
7.83948e-12
-1.58725e-12
8.13076e-12
-1.03029e-12
8.0682e-12
-1.67431e-12
8.39234e-12
-9.36244e-13
8.28756e-12
-1.77408e-12
8.65358e-12
-8.28682e-13
8.49759e-12
-1.88583e-12
8.91341e-12
-7.0717e-13
8.69851e-12
-2.01016e-12
9.161e-12
-5.69749e-13
8.88041e-12
-2.14753e-12
9.38926e-12
-4.13105e-13
9.03506e-12
-2.29771e-12
9.60425e-12
-2.33865e-13
9.16972e-12
-2.46101e-12
9.7744e-12
-1.70138e-14
9.24934e-12
-2.63436e-12
9.96e-12
1.47017e-13
9.32941e-12
-2.81468e-12
1.01601e-11
3.18583e-13
9.41128e-12
-3.00325e-12
1.03667e-11
5.0646e-13
9.49018e-12
-3.20237e-12
1.05759e-11
7.08133e-13
9.56758e-12
-3.4141e-12
1.07873e-11
9.23171e-13
9.63357e-12
-3.62955e-12
1.09986e-11
1.1439e-12
9.68449e-12
-3.84711e-12
1.1207e-11
1.36858e-12
9.71512e-12
-4.06471e-12
1.14098e-11
1.59528e-12
9.72139e-12
-4.28147e-12
1.16055e-11
1.82228e-12
9.70001e-12
-4.49596e-12
1.17921e-11
2.04882e-12
9.68029e-12
-4.72101e-12
1.1975e-11
2.28289e-12
9.67003e-12
-4.95619e-12
1.21621e-11
2.52265e-12
9.65443e-12
-5.19754e-12
1.23518e-11
2.76872e-12
9.63001e-12
-5.44325e-12
1.2544e-11
3.01918e-12
9.59365e-12
-5.69272e-12
1.27381e-11
3.27287e-12
9.54647e-12
-5.94494e-12
3.52998e-12
8.02305e-14
-1.40904e-12
1.60952e-13
-1.40951e-12
2.40596e-13
-1.40851e-12
3.21782e-13
-1.40994e-12
4.00679e-13
-1.40782e-12
4.82355e-13
-1.4104e-12
5.60269e-13
-1.40688e-12
6.42529e-13
-1.41097e-12
7.19136e-13
-1.40561e-12
8.02174e-13
-1.41178e-12
8.77025e-13
-1.40385e-12
9.61161e-13
-1.41299e-12
1.03365e-12
-1.40142e-12
1.11938e-12
-1.41484e-12
1.18875e-12
-1.39806e-12
1.27675e-12
-1.41763e-12
1.34209e-12
-1.39351e-12
1.43328e-12
-1.42173e-12
1.49356e-12
-1.38748e-12
1.58898e-12
-1.42747e-12
1.64314e-12
-1.37969e-12
1.74387e-12
-1.43509e-12
1.79103e-12
-1.37004e-12
1.89788e-12
-1.44459e-12
1.93755e-12
-1.35869e-12
2.05082e-12
-1.45562e-12
2.08306e-12
-1.34606e-12
2.20237e-12
-1.46745e-12
2.22781e-12
-1.33293e-12
2.35208e-12
-1.47898e-12
2.3718e-12
-1.32029e-12
2.49941e-12
-1.48893e-12
2.51486e-12
-1.3096e-12
2.64402e-12
-1.49588e-12
2.65698e-12
-1.30249e-12
2.78602e-12
-1.49848e-12
2.79774e-12
-1.30004e-12
2.92541e-12
-1.4955e-12
2.93639e-12
-1.30321e-12
3.06214e-12
-1.48594e-12
3.07203e-12
-1.31289e-12
3.19618e-12
-1.46899e-12
3.2038e-12
-1.33e-12
3.32704e-12
-1.44343e-12
3.33105e-12
-1.35601e-12
3.45296e-12
-1.40696e-12
3.45281e-12
-1.39309e-12
3.56952e-12
-1.35598e-12
3.56883e-12
-1.44535e-12
3.68151e-12
-1.29512e-12
3.67969e-12
-1.50841e-12
3.79036e-12
-1.22365e-12
3.78821e-12
-1.5851e-12
3.89653e-12
-1.13861e-12
3.89524e-12
-1.67302e-12
4.00172e-12
-1.04272e-12
3.99638e-12
-1.76874e-12
4.10688e-12
-9.39181e-13
4.09205e-12
-1.87099e-12
4.21454e-12
-8.29665e-13
4.18265e-12
-1.97827e-12
4.3283e-12
-7.15398e-13
4.26949e-12
-2.08872e-12
4.4548e-12
-5.98421e-13
4.35784e-12
-2.20075e-12
4.60436e-12
-4.80386e-13
4.45602e-12
-2.31266e-12
4.80187e-12
-3.62871e-13
4.59231e-12
-2.42479e-12
4.98217e-12
-2.42849e-13
4.70563e-12
-2.53814e-12
5.13843e-12
-1.14223e-13
4.78541e-12
-2.65023e-12
5.26443e-12
2.74436e-14
4.81932e-12
-2.75726e-12
5.39611e-12
1.31348e-13
4.8373e-12
-2.85529e-12
5.52232e-12
2.38158e-13
4.8471e-12
-2.95434e-12
5.64419e-12
3.46806e-13
4.85052e-12
-3.05344e-12
5.76305e-12
4.56052e-13
4.85154e-12
-3.15321e-12
5.88096e-12
5.65866e-13
4.85329e-12
-3.25379e-12
5.9995e-12
6.76064e-13
4.85864e-12
-3.35511e-12
6.12065e-12
7.8681e-13
4.85455e-12
-3.4549e-12
6.2396e-12
8.9784e-13
4.8379e-12
-3.55449e-12
6.35057e-12
1.00998e-12
4.80806e-12
-3.65503e-12
6.45302e-12
1.12375e-12
4.76848e-12
-3.75871e-12
6.54948e-12
1.23819e-12
4.72417e-12
-3.86741e-12
6.64378e-12
1.35326e-12
4.68422e-12
-3.98538e-12
1.47143e-12
2.68118e-14
-1.43585e-12
5.61118e-14
-1.43881e-12
8.03872e-14
-1.43279e-12
1.12377e-13
-1.44192e-12
1.33806e-13
-1.42924e-12
1.68871e-13
-1.44546e-12
1.86988e-13
-1.425e-12
2.25666e-13
-1.44965e-12
2.39889e-13
-1.41983e-12
2.82788e-13
-1.45468e-12
2.92505e-13
-1.41357e-12
3.40148e-13
-1.46063e-12
3.44853e-13
-1.40612e-12
3.97489e-13
-1.46747e-12
3.96941e-13
-1.39751e-12
4.54311e-13
-1.475e-12
4.48872e-13
-1.38808e-12
5.09965e-13
-1.48282e-12
5.00895e-13
-1.37841e-12
5.63732e-13
-1.49031e-12
5.53298e-13
-1.36925e-12
6.14824e-13
-1.49662e-12
6.06351e-13
-1.36157e-12
6.62488e-13
-1.50073e-12
6.60235e-13
-1.35643e-12
7.06162e-13
-1.50155e-12
7.15041e-13
-1.35494e-12
7.45589e-13
-1.49799e-12
7.70808e-13
-1.35815e-12
7.80941e-13
-1.48912e-12
8.27637e-13
-1.36699e-12
8.12873e-13
-1.47416e-12
8.8559e-13
-1.38232e-12
8.42299e-13
-1.45259e-12
9.44612e-13
-1.40481e-12
8.70224e-13
-1.4241e-12
1.00483e-12
-1.43465e-12
8.97754e-13
-1.38843e-12
1.06564e-12
-1.47109e-12
9.24911e-13
-1.34521e-12
1.12569e-12
-1.51367e-12
9.5244e-13
-1.29574e-12
1.18322e-12
-1.56078e-12
9.8283e-13
-1.24304e-12
1.23837e-12
-1.61155e-12
1.02049e-12
-1.18909e-12
1.29107e-12
-1.66366e-12
1.07288e-12
-1.1378e-12
1.34035e-12
-1.71282e-12
1.12989e-12
-1.08467e-12
1.38412e-12
-1.76264e-12
1.19134e-12
-1.03086e-12
1.41594e-12
-1.8097e-12
1.25756e-12
-9.80234e-13
1.44061e-12
-1.85608e-12
1.32838e-12
-9.30492e-13
1.46309e-12
-1.90345e-12
1.40362e-12
-8.79708e-13
1.48444e-12
-1.95182e-12
1.48284e-12
-8.28066e-13
1.50521e-12
-2.00064e-12
1.56592e-12
-7.76113e-13
1.52686e-12
-2.04966e-12
1.6532e-12
-7.24763e-13
1.55104e-12
-2.09858e-12
1.74586e-12
-6.7521e-13
1.58037e-12
-2.14716e-12
1.84374e-12
-6.26245e-13
1.61384e-12
-2.19489e-12
1.94593e-12
-5.74938e-13
1.64941e-12
-2.24162e-12
2.05693e-12
-5.2174e-13
1.69551e-12
-2.28881e-12
2.18936e-12
-4.66404e-13
1.76914e-12
-2.33704e-12
2.30714e-12
-4.06651e-13
1.83968e-12
-2.38783e-12
2.42057e-12
-3.42738e-13
1.90601e-12
-2.43977e-12
2.52753e-12
-2.74721e-13
1.96691e-12
-2.49281e-12
2.62486e-12
-2.01893e-13
2.01697e-12
-2.54532e-12
2.70366e-12
-1.20826e-13
2.04681e-12
-2.59695e-12
2.76653e-12
-4.36533e-14
2.0574e-12
-2.64598e-12
2.83084e-12
1.33715e-14
2.06607e-12
-2.69013e-12
2.89817e-12
6.57409e-14
2.07084e-12
-2.72716e-12
2.96968e-12
1.11139e-13
2.06654e-12
-2.75189e-12
3.04565e-12
1.44638e-13
2.04705e-12
-2.76011e-12
3.11458e-12
1.70652e-13
1.99248e-12
-2.74531e-12
3.15834e-12
1.87401e-13
1.87519e-12
-2.70223e-12
1.81052e-13
4.72384e-16
-1.43633e-12
-2.89956e-15
-1.43543e-12
1.4696e-15
-1.43716e-12
-6.02115e-15
-1.43443e-12
2.65665e-15
-1.43792e-12
-9.44089e-15
-1.43337e-12
4.17389e-15
-1.43861e-12
-1.3263e-14
-1.43221e-12
6.15205e-15
-1.43925e-12
-1.76428e-14
-1.43088e-12
8.71234e-15
-1.43992e-12
-2.26669e-14
-1.42925e-12
1.20064e-14
-1.44079e-12
-2.83367e-14
-1.42713e-12
1.62402e-14
-1.44209e-12
-3.45161e-14
-1.42425e-12
2.15334e-14
-1.44413e-12
-4.10112e-14
-1.42028e-12
2.78162e-14
-1.44723e-12
-4.75827e-14
-1.41491e-12
3.49102e-14
-1.45175e-12
-5.38729e-14
-1.40783e-12
4.25079e-14
-1.45795e-12
-5.94137e-14
-1.39881e-12
5.02272e-14
-1.46607e-12
-6.36518e-14
-1.38767e-12
5.76522e-14
-1.47625e-12
-6.59754e-14
-1.37437e-12
6.44151e-14
-1.48854e-12
-6.5784e-14
-1.35892e-12
7.01688e-14
-1.50294e-12
-6.25752e-14
-1.34142e-12
7.44774e-14
-1.51937e-12
-5.61012e-14
-1.32201e-12
7.66852e-14
-1.53759e-12
-4.64698e-14
-1.30094e-12
7.60021e-14
-1.55712e-12
-3.38314e-14
-1.27859e-12
7.24259e-14
-1.57735e-12
-1.72333e-14
-1.25555e-12
6.70017e-14
-1.5979e-12
3.80933e-15
-1.23254e-12
6.19491e-14
-1.61892e-12
2.80193e-14
-1.20911e-12
5.77078e-14
-1.64124e-12
5.36375e-14
-1.18502e-12
5.33724e-14
-1.66339e-12
7.59344e-14
-1.16036e-12
4.87813e-14
-1.68566e-12
9.86776e-14
-1.13456e-12
4.48022e-14
-1.70876e-12
1.2319e-13
-1.10925e-12
4.52439e-14
-1.73176e-12
1.49488e-13
-1.08448e-12
5.01888e-14
-1.75678e-12
1.77401e-13
-1.0577e-12
5.5551e-14
-1.7816e-12
2.07012e-13
-1.03117e-12
6.18799e-14
-1.80669e-12
2.3792e-13
-1.00411e-12
6.92343e-14
-1.83195e-12
2.69461e-13
-9.7634e-13
7.7158e-14
-1.85736e-12
3.00341e-13
-9.47945e-13
8.47586e-14
-1.883e-12
3.28275e-13
-9.18727e-13
8.99452e-14
-1.90883e-12
3.5188e-13
-8.8818e-13
9.16504e-14
-1.93466e-12
3.73249e-13
-8.56537e-13
9.22906e-14
-1.96066e-12
3.945e-13
-8.23949e-13
9.24518e-14
-1.98677e-12
4.16864e-13
-7.90816e-13
9.25165e-14
-2.01269e-12
4.43291e-13
-7.57425e-13
9.32068e-14
-2.03775e-12
4.75239e-13
-7.2477e-13
9.65556e-14
-2.06109e-12
5.15254e-13
-6.9342e-13
1.04684e-13
-2.08224e-12
5.66324e-13
-6.63533e-13
1.21932e-13
-2.10093e-12
6.36243e-13
-6.35138e-13
1.56615e-13
-2.11732e-12
7.20644e-13
-6.07683e-13
2.06789e-13
-2.13212e-12
8.00687e-13
-5.80526e-13
2.56794e-13
-2.14623e-12
8.75732e-13
-5.53197e-13
3.0975e-13
-2.16118e-12
9.46583e-13
-5.25694e-13
3.71255e-13
-2.17656e-12
1.01471e-12
-4.98814e-13
4.4861e-13
-2.19401e-12
1.09074e-12
-4.71473e-13
5.66824e-13
-2.2214e-12
1.19404e-12
-4.39817e-13
7.54213e-13
-2.2624e-12
-4.03043e-13
-1.19636e-14
-1.42436e-12
-2.40007e-14
-1.4234e-12
-3.58198e-14
-1.42534e-12
-4.80193e-14
-1.42223e-12
-5.94874e-14
-1.42645e-12
-7.21089e-14
-1.42074e-12
-8.28482e-14
-1.42787e-12
-9.62811e-14
-1.41878e-12
-1.0579e-13
-1.42974e-12
-1.20498e-13
-1.41617e-12
-1.28221e-13
-1.4322e-12
-1.44689e-13
-1.41278e-12
-1.5009e-13
-1.43539e-12
-1.68731e-13
-1.40849e-12
-1.71388e-13
-1.43943e-12
-1.92441e-13
-1.40319e-12
-1.92172e-13
-1.44439e-12
-2.15606e-13
-1.39684e-12
-2.12512e-13
-1.45033e-12
-2.37999e-13
-1.38942e-12
-2.32502e-13
-1.45724e-12
-2.5938e-13
-1.38096e-12
-2.52201e-13
-1.46513e-12
-2.79522e-13
-1.37149e-12
-2.7163e-13
-1.47397e-12
-2.98229e-13
-1.36107e-12
-2.90759e-13
-1.48372e-12
-3.15368e-13
-1.34976e-12
-3.09561e-13
-1.49435e-12
-3.3089e-13
-1.33759e-12
-3.28018e-13
-1.50582e-12
-3.44852e-13
-1.32459e-12
-3.46129e-13
-1.5181e-12
-3.57388e-13
-1.31075e-12
-3.63793e-13
-1.53119e-12
-3.68689e-13
-1.29605e-12
-3.80655e-13
-1.54515e-12
-3.78871e-13
-1.28038e-12
-3.96038e-13
-1.56018e-12
-3.87876e-13
-1.26371e-12
-4.09612e-13
-1.57617e-12
-3.95902e-13
-1.24625e-12
-4.2241e-13
-1.59241e-12
-4.02496e-13
-1.22903e-12
-4.36473e-13
-1.60726e-12
-4.08914e-13
-1.21257e-12
-4.50466e-13
-1.62184e-12
-4.15025e-13
-1.1958e-12
-4.63689e-13
-1.637e-12
-4.19193e-13
-1.17906e-12
-4.75616e-13
-1.65234e-12
-4.23021e-13
-1.16185e-12
-4.86416e-13
-1.66836e-12
-4.26868e-13
-1.14403e-12
-4.98777e-13
-1.68487e-12
-4.30991e-13
-1.12549e-12
-5.11085e-13
-1.7015e-12
-4.35766e-13
-1.10649e-12
-5.24338e-13
-1.71811e-12
-4.41427e-13
-1.08702e-12
-5.38445e-13
-1.73493e-12
-4.47806e-13
-1.06698e-12
-5.53275e-13
-1.75189e-12
-4.54827e-13
-1.04639e-12
-5.68772e-13
-1.76906e-12
-4.62261e-13
-1.02524e-12
-5.84797e-13
-1.7863e-12
-4.69184e-13
-1.00379e-12
-6.00363e-13
-1.80348e-12
-4.7463e-13
-9.8227e-13
-6.14815e-13
-1.82048e-12
-4.77743e-13
-9.61021e-13
-6.27389e-13
-1.83712e-12
-4.77881e-13
-9.40324e-13
-6.37601e-13
-1.85297e-12
-4.74734e-13
-9.20292e-13
-6.44756e-13
-1.86772e-12
-4.6842e-13
-9.01106e-13
-6.47589e-13
-1.88192e-12
-4.58231e-13
-8.82778e-13
-6.45372e-13
-1.8951e-12
-4.4273e-13
-8.66174e-13
-6.3772e-13
-1.90594e-12
-4.1795e-13
-8.54908e-13
-6.24718e-13
-1.91055e-12
-3.80574e-13
-8.51826e-13
-6.04738e-13
-1.90796e-12
-3.28898e-13
-8.56366e-13
-5.77031e-13
-1.8981e-12
-2.63583e-13
-8.66645e-13
-5.40943e-13
-1.88382e-12
-1.89796e-13
-8.76841e-13
-4.88156e-13
-1.8782e-12
-1.11747e-13
-8.75222e-13
-4.26544e-13
-1.87922e-12
-2.45824e-14
-8.73435e-13
-3.70023e-13
-1.87596e-12
6.83929e-14
-8.78234e-13
-3.25761e-13
-1.86825e-12
-8.86397e-13
-1.46516e-14
-1.40971e-12
-2.91127e-14
-1.40894e-12
-4.3945e-14
-1.41051e-12
-5.81575e-14
-1.40802e-12
-7.31976e-14
-1.41141e-12
-8.70773e-14
-1.40686e-12
-1.02389e-13
-1.41256e-12
-1.15803e-13
-1.40536e-12
-1.31502e-13
-1.41404e-12
-1.44241e-13
-1.40343e-12
-1.60515e-13
-1.41593e-12
-1.72282e-13
-1.40102e-12
-1.89406e-13
-1.41827e-12
-1.9981e-13
-1.39809e-12
-2.18149e-13
-1.42109e-12
-2.26707e-13
-1.39464e-12
-2.46712e-13
-1.42439e-12
-2.52862e-13
-1.39069e-12
-2.75047e-13
-1.42814e-12
-2.78181e-13
-1.38629e-12
-3.0311e-13
-1.43231e-12
-3.02597e-13
-1.38147e-12
-3.30872e-13
-1.43686e-12
-3.26077e-13
-1.37628e-12
-3.58321e-13
-1.44172e-12
-3.4861e-13
-1.37078e-12
-3.85477e-13
-1.44685e-12
-3.70228e-13
-1.36501e-12
-4.12382e-13
-1.45219e-12
-3.90964e-13
-1.359e-12
-4.39074e-13
-1.45771e-12
-4.10861e-13
-1.3528e-12
-4.65596e-13
-1.46336e-12
-4.29937e-13
-1.34641e-12
-4.91971e-13
-1.46916e-12
-4.4817e-13
-1.33985e-12
-5.18211e-13
-1.47511e-12
-4.6552e-13
-1.33307e-12
-5.44489e-13
-1.48121e-12
-4.82145e-13
-1.32605e-12
-5.70959e-13
-1.48735e-12
-4.98517e-13
-1.3187e-12
-5.96466e-13
-1.49446e-12
-5.15228e-13
-1.31026e-12
-6.20474e-13
-1.50202e-12
-5.31898e-13
-1.30115e-12
-6.43562e-13
-1.51018e-12
-5.47983e-13
-1.29138e-12
-6.66037e-13
-1.51894e-12
-5.63833e-13
-1.28127e-12
-6.8825e-13
-1.52792e-12
-5.795e-13
-1.2706e-12
-7.10568e-13
-1.53729e-12
-5.95137e-13
-1.25946e-12
-7.33347e-13
-1.54666e-12
-6.10563e-13
-1.24827e-12
-7.55876e-13
-1.55619e-12
-6.25407e-13
-1.23696e-12
-7.77992e-13
-1.56553e-12
-6.39236e-13
-1.22577e-12
-7.9965e-13
-1.57452e-12
-6.51606e-13
-1.21502e-12
-8.20512e-13
-1.58298e-12
-6.61904e-13
-1.205e-12
-8.40393e-13
-1.59057e-12
-6.69482e-13
-1.19615e-12
-8.5879e-13
-1.59699e-12
-6.73806e-13
-1.18878e-12
-8.75436e-13
-1.60185e-12
-6.74429e-13
-1.18328e-12
-8.90165e-13
-1.60474e-12
-6.71171e-13
-1.18001e-12
-9.02855e-13
-1.60544e-12
-6.64016e-13
-1.17916e-12
-9.13385e-13
-1.6036e-12
-6.52304e-13
-1.18137e-12
-9.22099e-13
-1.59793e-12
-6.35258e-13
-1.18795e-12
-9.29278e-13
-1.5879e-12
-6.14046e-13
-1.19801e-12
-9.34067e-13
-1.57508e-12
-5.91217e-13
-1.20902e-12
-9.32921e-13
-1.56423e-12
-5.75838e-13
-1.21199e-12
-9.22072e-13
-1.56432e-12
-5.67129e-13
-1.20677e-12
-9.0465e-13
-1.57044e-12
-5.64699e-13
-1.19632e-12
-8.82141e-13
-1.58066e-12
-5.65424e-13
-1.18336e-12
-8.57421e-13
-1.59182e-12
-5.59573e-13
-1.17469e-12
-8.4799e-13
-1.58978e-12
-5.39655e-13
-1.18356e-12
-8.45283e-13
-1.57359e-12
-5.17101e-13
-1.20162e-12
-8.43312e-13
-1.54975e-12
-4.96102e-13
-1.22544e-12
-8.42063e-13
-1.52229e-12
-1.25269e-12
-1.33151e-14
-1.3964e-12
-2.62998e-14
-1.39595e-12
-3.99412e-14
-1.39686e-12
-5.25225e-14
-1.39544e-12
-6.65542e-14
-1.39738e-12
-7.85961e-14
-1.39482e-12
-9.3143e-14
-1.39801e-12
-1.04455e-13
-1.39405e-12
-1.19694e-13
-1.3988e-12
-1.30035e-13
-1.39309e-12
-1.46185e-13
-1.39978e-12
-1.55281e-13
-1.39192e-12
-1.72593e-13
-1.40096e-12
-1.80153e-13
-1.39053e-12
-1.98888e-13
-1.40236e-12
-2.04624e-13
-1.3889e-12
-2.25043e-13
-1.40397e-12
-2.28678e-13
-1.38706e-12
-2.51033e-13
-1.40579e-12
-2.52318e-13
-1.385e-12
-2.76838e-13
-1.40779e-12
-2.75551e-13
-1.38276e-12
-3.02441e-13
-1.40997e-12
-2.98396e-13
-1.38033e-12
-3.27832e-13
-1.41229e-12
-3.20878e-13
-1.37773e-12
-3.53e-13
-1.41473e-12
-3.4301e-13
-1.375e-12
-3.77931e-13
-1.41727e-12
-3.64805e-13
-1.37213e-12
-4.02611e-13
-1.4199e-12
-3.86257e-13
-1.36915e-12
-4.27024e-13
-1.42259e-12
-4.07363e-13
-1.36607e-12
-4.51188e-13
-1.42533e-12
-4.28123e-13
-1.36291e-12
-4.75154e-13
-1.42808e-12
-4.48543e-13
-1.35968e-12
-4.98946e-13
-1.43081e-12
-4.68608e-13
-1.35639e-12
-5.22422e-13
-1.43354e-12
-4.88021e-13
-1.3531e-12
-5.46167e-13
-1.43631e-12
-5.06766e-13
-1.34966e-12
-5.69677e-13
-1.43911e-12
-5.24658e-13
-1.34617e-12
-5.92897e-13
-1.44194e-12
-5.41584e-13
-1.34269e-12
-6.15859e-13
-1.44467e-12
-5.57798e-13
-1.33933e-12
-6.385e-13
-1.44722e-12
-5.72928e-13
-1.33617e-12
-6.60684e-13
-1.44954e-12
-5.86993e-13
-1.33315e-12
-6.82145e-13
-1.45151e-12
-5.99846e-13
-1.33057e-12
-7.02861e-13
-1.45318e-12
-6.11365e-13
-1.32845e-12
-7.22527e-13
-1.45437e-12
-6.21496e-13
-1.32681e-12
-7.41031e-13
-1.45498e-12
-6.30264e-13
-1.32579e-12
-7.58234e-13
-1.45501e-12
-6.37787e-13
-1.32545e-12
-7.74018e-13
-1.45434e-12
-6.44234e-13
-1.32593e-12
-7.88365e-13
-1.45286e-12
-6.49992e-13
-1.32715e-12
-8.01142e-13
-1.4507e-12
-6.55464e-13
-1.32895e-12
-8.12427e-13
-1.44778e-12
-6.60727e-13
-1.33172e-12
-8.22455e-13
-1.44371e-12
-6.66856e-13
-1.33476e-12
-8.30192e-13
-1.44027e-12
-6.76766e-13
-1.3348e-12
-8.31215e-13
-1.44348e-12
-6.93075e-13
-1.32609e-12
-8.27115e-13
-1.45386e-12
-7.13762e-13
-1.31136e-12
-8.19589e-13
-1.46925e-12
-7.35042e-13
-1.29357e-12
-8.15108e-13
-1.48417e-12
-7.4295e-13
-1.28415e-12
-8.20548e-13
-1.48672e-12
-7.42351e-13
-1.28497e-12
-8.31976e-13
-1.48081e-12
-7.34455e-13
-1.29384e-12
-8.47656e-13
-1.46746e-12
-7.21459e-13
-1.30956e-12
-8.65633e-13
-1.44765e-12
-7.09989e-13
-1.33033e-12
-8.75281e-13
-1.42449e-12
-7.06215e-13
-1.35262e-12
-8.79534e-13
-1.40027e-12
-7.04069e-13
-1.37708e-12
-8.79711e-13
-1.37411e-12
-7.0166e-13
-1.40349e-12
-8.78394e-13
-1.34555e-12
-1.43247e-12
-1.06123e-14
-1.38578e-12
-2.09662e-14
-1.3856e-12
-3.1833e-14
-1.386e-12
-4.18885e-14
-1.38539e-12
-5.30448e-14
-1.38623e-12
-6.27279e-14
-1.38514e-12
-7.4242e-14
-1.3865e-12
-8.34526e-14
-1.38484e-12
-9.54177e-14
-1.38684e-12
-1.04038e-13
-1.38447e-12
-1.16563e-13
-1.38725e-12
-1.24468e-13
-1.38402e-12
-1.37669e-13
-1.38776e-12
-1.44737e-13
-1.38346e-12
-1.58726e-13
-1.38837e-12
-1.64843e-13
-1.38278e-12
-1.79724e-13
-1.38909e-12
-1.84792e-13
-1.38199e-12
-2.00653e-13
-1.38993e-12
-2.04589e-13
-1.38107e-12
-2.21504e-13
-1.39088e-12
-2.24238e-13
-1.38002e-12
-2.42265e-13
-1.39194e-12
-2.43741e-13
-1.37885e-12
-2.62923e-13
-1.3931e-12
-2.63095e-13
-1.37756e-12
-2.83461e-13
-1.39436e-12
-2.82291e-13
-1.37617e-12
-3.03863e-13
-1.3957e-12
-3.01316e-13
-1.37468e-12
-3.24109e-13
-1.39711e-12
-3.20153e-13
-1.37311e-12
-3.44183e-13
-1.39856e-12
-3.38778e-13
-1.37148e-12
-3.64063e-13
-1.40005e-12
-3.57167e-13
-1.36981e-12
-3.83714e-13
-1.40153e-12
-3.75264e-13
-1.36813e-12
-4.03062e-13
-1.40301e-12
-3.92985e-13
-1.36647e-12
-4.22062e-13
-1.40446e-12
-4.10288e-13
-1.36487e-12
-4.40775e-13
-1.40583e-12
-4.27072e-13
-1.36337e-12
-4.59131e-13
-1.40705e-12
-4.43282e-13
-1.36202e-12
-4.77098e-13
-1.40812e-12
-4.58909e-13
-1.36088e-12
-4.94615e-13
-1.40896e-12
-4.7398e-13
-1.35996e-12
-5.11579e-13
-1.40962e-12
-4.88404e-13
-1.35934e-12
-5.27945e-13
-1.41e-12
-5.02183e-13
-1.35891e-12
-5.43616e-13
-1.41007e-12
-5.15393e-13
-1.3588e-12
-5.58656e-13
-1.40991e-12
-5.28142e-13
-1.35897e-12
-5.73019e-13
-1.40949e-12
-5.40491e-13
-1.35933e-12
-5.86673e-13
-1.4088e-12
-5.52595e-13
-1.35987e-12
-5.99653e-13
-1.40795e-12
-5.64767e-13
-1.36033e-12
-6.11831e-13
-1.40727e-12
-5.77216e-13
-1.36055e-12
-6.23385e-13
-1.40669e-12
-5.89782e-13
-1.36075e-12
-6.34123e-13
-1.40636e-12
-6.03435e-13
-1.35964e-12
-6.42082e-13
-1.40913e-12
-6.21067e-13
-1.35273e-12
-6.46393e-13
-1.41838e-12
-6.40314e-13
-1.34084e-12
-6.49514e-13
-1.43107e-12
-6.55812e-13
-1.3285e-12
-6.59992e-13
-1.4393e-12
-6.62358e-13
-1.32372e-12
-6.75616e-13
-1.4406e-12
-6.61498e-13
-1.32548e-12
-6.95476e-13
-1.43528e-12
-6.55498e-13
-1.33355e-12
-7.1536e-13
-1.4243e-12
-6.53819e-13
-1.34569e-12
-7.29707e-13
-1.41083e-12
-6.54772e-13
-1.3599e-12
-7.40603e-13
-1.39498e-12
-6.58175e-13
-1.37627e-12
-7.48466e-13
-1.37717e-12
-6.63715e-13
-1.39431e-12
-7.53452e-13
-1.35791e-12
-6.7007e-13
-1.41372e-12
-7.56909e-13
-1.33765e-12
-6.75115e-13
-1.43442e-12
-7.59529e-13
-1.31586e-12
-6.80096e-13
-1.45651e-12
-7.6144e-13
-1.29276e-12
-6.85202e-13
-1.47973e-12
-7.62493e-13
-1.26826e-12
-1.50441e-12
-7.80227e-15
-1.37798e-12
-1.54785e-14
-1.37792e-12
-2.34066e-14
-1.37807e-12
-3.09442e-14
-1.37785e-12
-3.90103e-14
-1.37816e-12
-4.63849e-14
-1.37776e-12
-5.4614e-14
-1.37827e-12
-6.1792e-14
-1.37766e-12
-7.02174e-14
-1.37841e-12
-7.71568e-14
-1.37753e-12
-8.58187e-14
-1.37859e-12
-9.24728e-14
-1.37736e-12
-1.01415e-13
-1.37881e-12
-1.07735e-13
-1.37714e-12
-1.17004e-13
-1.3791e-12
-1.22938e-13
-1.37685e-12
-1.32579e-13
-1.37945e-12
-1.38078e-13
-1.37649e-12
-1.48132e-13
-1.37987e-12
-1.53149e-13
-1.37605e-12
-1.63653e-13
-1.38037e-12
-1.68143e-13
-1.37553e-12
-1.79127e-13
-1.38095e-12
-1.83048e-13
-1.37493e-12
-1.94538e-13
-1.38161e-12
-1.97851e-13
-1.37425e-12
-2.09864e-13
-1.38235e-12
-2.12536e-13
-1.37349e-12
-2.25087e-13
-1.38315e-12
-2.27087e-13
-1.37268e-12
-2.40184e-13
-1.38401e-12
-2.41486e-13
-1.37181e-12
-2.55132e-13
-1.38492e-12
-2.55713e-13
-1.3709e-12
-2.69901e-13
-1.38586e-12
-2.69744e-13
-1.36997e-12
-2.84457e-13
-1.38682e-12
-2.83556e-13
-1.36903e-12
-2.9877e-13
-1.3878e-12
-2.9713e-13
-1.36811e-12
-3.12831e-13
-1.38876e-12
-3.10484e-13
-1.36722e-12
-3.26624e-13
-1.38968e-12
-3.23607e-13
-1.36638e-12
-3.40097e-13
-1.39056e-12
-3.36502e-13
-1.36561e-12
-3.53251e-13
-1.39137e-12
-3.49202e-13
-1.36493e-12
-3.66087e-13
-1.39208e-12
-3.61725e-13
-1.36432e-12
-3.78604e-13
-1.39274e-12
-3.74148e-13
-1.3638e-12
-3.90816e-13
-1.39333e-12
-3.86494e-13
-1.36323e-12
-4.02705e-13
-1.39386e-12
-3.98805e-13
-1.3627e-12
-4.14324e-13
-1.39439e-12
-4.11097e-13
-1.36219e-12
-4.25568e-13
-1.39502e-12
-4.23441e-13
-1.36146e-12
-4.36359e-13
-1.39588e-12
-4.3572e-13
-1.36051e-12
-4.47029e-13
-1.39664e-12
-4.47614e-13
-1.35975e-12
-4.57314e-13
-1.39757e-12
-4.60135e-13
-1.35773e-12
-4.65073e-13
-1.40175e-12
-4.74763e-13
-1.35106e-12
-4.71412e-13
-1.40971e-12
-4.88806e-13
-1.34225e-12
-4.80581e-13
-1.41735e-12
-4.95774e-13
-1.33754e-12