/*--------------------------------*- C++ -*----------------------------------*\
  =========                 |
  \\      /  F ield         | OpenFOAM: The Open Source CFD Toolbox
   \\    /   O peration     | Website:  https://openfoam.org
    \\  /    A nd           | Version:  10
     \\/     M anipulation  |
\*---------------------------------------------------------------------------*/
FoamFile
{
    format      ascii;
    class       surfaceScalarField;
    location    "0.002";
    object      phi_0;
}
// * * * * * * * * * * * * * * * * * * * * * * * * * * * * * * * * * * * * * //

dimensions      [0 3 -1 0 0 0 0];

internalField   nonuniform List<scalar> 
19800
(
4.9493e-13
-4.9493e-13
9.89935e-13
-4.95005e-13
1.48508e-12
-4.95144e-13
1.98042e-12
-4.95345e-13
2.47606e-12
-4.95632e-13
2.97201e-12
-4.95958e-13
3.46841e-12
-4.96398e-13
3.96526e-12
-4.96845e-13
4.4627e-12
-4.97446e-13
4.96071e-12
-4.98005e-13
5.45949e-12
-4.9878e-13
5.95893e-12
-4.99437e-13
6.45933e-12
-5.00408e-13
6.96047e-12
-5.01139e-13
7.46281e-12
-5.02339e-13
7.96592e-12
-5.03107e-13
8.47051e-12
-5.04585e-13
8.97584e-12
-5.05333e-13
9.48301e-12
-5.07167e-13
9.99081e-12
-5.07805e-13
1.05009e-11
-5.10114e-13
1.10114e-11
-5.10503e-13
1.15249e-11
-5.13462e-13
1.20383e-11
-5.13391e-13
1.25556e-11
-5.17273e-13
1.3072e-11
-5.16412e-13
1.35936e-11
-5.21636e-13
1.41131e-11
-5.19473e-13
1.46398e-11
-5.26689e-13
1.51622e-11
-5.22418e-13
1.56948e-11
-5.32657e-13
1.62198e-11
-5.24995e-13
1.67597e-11
-5.39872e-13
1.72865e-11
-5.26809e-13
1.78354e-11
-5.48861e-13
1.83626e-11
-5.27273e-13
1.8923e-11
-5.60348e-13
1.94485e-11
-5.25539e-13
2.00238e-11
-5.75305e-13
2.05444e-11
-5.20519e-13
2.11394e-11
-5.95022e-13
2.16503e-11
-5.10874e-13
2.22713e-11
-6.21084e-13
2.27663e-11
-4.94996e-13
2.34216e-11
-6.55245e-13
2.38927e-11
-4.71093e-13
2.45921e-11
-6.99466e-13
2.50294e-11
-4.3726e-13
2.57854e-11
-7.56047e-13
2.61769e-11
-3.9144e-13
2.70042e-11
-8.2734e-13
2.73356e-11
-3.31355e-13
2.82515e-11
-9.15911e-13
2.85062e-11
-2.54655e-13
2.95309e-11
-1.02471e-12
2.96903e-11
-1.59419e-13
3.0847e-11
-1.15673e-12
3.0895e-11
-4.79715e-14
3.22106e-11
-1.31562e-12
3.20838e-11
1.26813e-13
3.35885e-11
-1.50473e-12
3.32572e-11
3.31285e-13
3.49838e-11
-1.72655e-12
3.4424e-11
5.59765e-13
3.64083e-11
-1.98424e-12
3.5586e-11
8.22312e-13
3.78683e-11
-2.2823e-12
3.67441e-11
1.12419e-12
3.9368e-11
-2.62396e-12
3.78969e-11
1.47111e-12
4.09107e-11
-3.01382e-12
3.90434e-11
1.86739e-12
4.24994e-11
-3.45605e-12
4.01825e-11
2.31686e-12
4.41375e-11
-3.95491e-12
4.13144e-11
2.82303e-12
4.58304e-11
-4.51597e-12
4.24402e-11
3.39016e-12
4.75836e-11
-5.1434e-12
4.35616e-11
4.02209e-12
4.94069e-11
-5.84534e-12
4.46852e-11
4.72166e-12
5.13121e-11
-6.62682e-12
4.58194e-11
5.4927e-12
5.33072e-11
-7.48789e-12
4.6968e-11
6.33922e-12
5.53942e-11
-8.4262e-12
4.8129e-11
7.26521e-12
5.75759e-11
-9.44689e-12
4.93018e-11
8.27413e-12
5.98518e-11
-1.055e-11
5.04841e-11
9.36763e-12
6.22256e-11
-1.17414e-11
5.16753e-11
1.05503e-11
6.47003e-11
-1.3025e-11
5.2875e-11
1.18253e-11
6.72784e-11
-1.44034e-11
5.40839e-11
1.31945e-11
6.99611e-11
-1.58772e-11
1.46599e-11
3.93611e-13
-8.8854e-13
7.87212e-13
-8.88606e-13
1.18085e-12
-8.88786e-13
1.57448e-12
-8.88969e-13
1.96817e-12
-8.89328e-13
2.36185e-12
-8.8963e-13
2.75562e-12
-8.90173e-13
3.14936e-12
-8.90584e-13
3.54323e-12
-8.9132e-13
3.93705e-12
-8.91823e-13
4.33105e-12
-8.92776e-13
4.72496e-12
-8.93345e-13
5.11908e-12
-8.94537e-13
5.51308e-12
-8.95131e-13
5.90735e-12
-8.96611e-13
6.30142e-12
-8.97176e-13
6.69583e-12
-8.99002e-13
7.08996e-12
-8.99456e-13
7.48452e-12
-9.01726e-13
7.87866e-12
-9.01952e-13
8.27336e-12
-9.04808e-13
8.66748e-12
-9.04625e-13
9.06229e-12
-9.08277e-13
9.45633e-12
-9.07423e-13
9.85125e-12
-9.12199e-13
1.02451e-11
-9.1026e-13
1.06401e-11
-9.16685e-13
1.10337e-11
-9.12992e-13
1.14289e-11
-9.21921e-13
1.18218e-11
-9.1535e-13
1.22174e-11
-9.28206e-13
1.26093e-11
-9.16907e-13
1.30055e-11
-9.361e-13
1.33957e-11
-9.16952e-13
1.37932e-11
-9.46426e-13
1.41804e-11
-9.14426e-13
1.45805e-11
-9.6042e-13
1.49627e-11
-9.07823e-13
1.53671e-11
-9.79693e-13
1.57418e-11
-8.95222e-13
1.61531e-11
-1.00629e-12
1.65165e-11
-8.74288e-13
1.69379e-11
-1.04243e-12
1.72851e-11
-8.42285e-13
1.77206e-11
-1.09067e-12
1.80455e-11
-7.96047e-13
1.84996e-11
-1.15357e-12
1.87945e-11
-7.32158e-13
1.92722e-11
-1.23369e-12
1.95301e-11
-6.49363e-13
2.00365e-11
-1.3337e-12
2.02525e-11
-5.47417e-13
2.07923e-11
-1.45571e-12
2.09649e-11
-4.27203e-13
2.15418e-11
-1.60168e-12
2.16737e-11
-2.91276e-13
2.22902e-11
-1.77323e-12
2.23885e-11
-1.46314e-13
2.30452e-11
-1.97231e-12
2.31614e-11
1.06953e-14
2.38575e-11
-2.2009e-12
2.39235e-11
2.6533e-13
2.46595e-11
-2.46261e-12
2.46795e-11
5.39833e-13
2.54534e-11
-2.7582e-12
2.5434e-11
8.41752e-13
2.6241e-11
-3.08931e-12
2.61876e-11
1.17758e-12
2.70213e-11
-3.45767e-12
2.69423e-11
1.55013e-12
2.77917e-11
-3.8632e-12
2.76992e-11
1.95982e-12
2.8551e-11
-4.30781e-12
2.84602e-11
2.40769e-12
2.92966e-11
-4.79139e-12
2.92241e-11
2.89555e-12
3.00238e-11
-5.31565e-12
2.99908e-11
3.42314e-12
3.07278e-11
-5.88041e-12
3.0759e-11
3.99096e-12
3.13991e-11
-6.48549e-12
3.15211e-11
4.59962e-12
3.20257e-11
-7.13139e-12
3.22697e-11
5.24869e-12
3.25976e-11
-7.81576e-12
3.29996e-11
5.93718e-12
3.3111e-11
-8.53755e-12
3.37127e-11
6.66345e-12
3.35648e-11
-9.29892e-12
3.44098e-11
7.42911e-12
3.39605e-11
-1.01007e-11
3.50919e-11
8.23616e-12
3.4282e-11
-1.09315e-11
3.576e-11
9.07231e-12
3.45229e-11
-1.17879e-11
3.64134e-11
9.93485e-12
3.46768e-11
-1.26668e-11
3.70508e-11
1.08204e-11
3.47414e-11
-1.35678e-11
1.17276e-11
2.75644e-13
-1.16418e-12
5.51237e-13
-1.1642e-12
8.26807e-13
-1.16436e-12
1.1022e-12
-1.16436e-12
1.37756e-12
-1.16468e-12
1.65261e-12
-1.16468e-12
1.92761e-12
-1.16518e-12
2.20219e-12
-1.16516e-12
2.47671e-12
-1.16584e-12
2.75068e-12
-1.16579e-12
3.02457e-12
-1.16666e-12
3.29779e-12
-1.16657e-12
3.5709e-12
-1.16765e-12
3.84326e-12
-1.16749e-12
4.11542e-12
-1.16877e-12
4.38681e-12
-1.16857e-12
4.65781e-12
-1.17001e-12
4.92816e-12
-1.1698e-12
5.19775e-12
-1.17132e-12
5.467e-12
-1.1712e-12
5.73486e-12
-1.17267e-12
6.00304e-12
-1.1728e-12
6.26876e-12
-1.174e-12
6.53597e-12
-1.17463e-12
6.79902e-12
-1.17526e-12
7.06546e-12
-1.1767e-12
7.32522e-12
-1.17644e-12
7.59115e-12
-1.17893e-12
7.8469e-12
-1.17767e-12
8.11267e-12
-1.18111e-12
8.36374e-12
-1.17927e-12
8.62959e-12
-1.18276e-12
8.87538e-12
-1.18189e-12
9.14147e-12
-1.18304e-12
9.38159e-12
-1.18656e-12
9.64785e-12
-1.18068e-12
9.88215e-12
-1.19472e-12
1.01484e-11
-1.17405e-12
1.03769e-11
-1.20822e-12
1.06429e-11
-1.1612e-12
1.08657e-11
-1.22906e-12
1.11314e-11
-1.14004e-12
1.13484e-11
-1.25941e-12
1.16147e-11
-1.10859e-12
1.18252e-11
-1.30119e-12
1.20942e-11
-1.06509e-12
1.22969e-11
-1.35618e-12
1.25728e-11
-1.00809e-12
1.27646e-11
-1.42549e-12
1.30509e-11
-9.35663e-13
1.32284e-11
-1.51122e-12
1.35277e-11
-8.46726e-13
1.36862e-11
-1.61423e-12
1.39987e-11
-7.39674e-13
1.4133e-11
-1.73592e-12
1.44546e-11
-6.12913e-13
1.45592e-11
-1.87784e-12
1.48765e-11
-4.63616e-13
1.49449e-11
-2.04071e-12
1.5248e-11
-2.92397e-13
1.52709e-11
-2.22382e-12
1.56446e-11
-1.08325e-13
1.56088e-11
-2.42684e-12
1.60543e-11
9.43823e-14
1.59466e-11
-2.65052e-12
1.64543e-11
3.34024e-13
1.6259e-11
-2.89405e-12
1.68503e-11
5.86312e-13
1.65505e-11
-3.15786e-12
1.72444e-11
8.5626e-13
1.68249e-11
-3.4437e-12
1.7637e-11
1.14769e-12
1.70796e-11
-3.75041e-12
1.8027e-11
1.4603e-12
1.73128e-11
-4.07725e-12
1.84162e-11
1.79223e-12
1.75212e-11
-4.42072e-12
1.88031e-11
2.14124e-12
1.77042e-11
-4.78148e-12
1.91879e-11
2.50727e-12
1.7862e-11
-5.15961e-12
1.95721e-11
2.88952e-12
1.79956e-11
-5.55487e-12
1.9956e-11
3.2883e-12
1.81083e-11
-5.96808e-12
2.03407e-11
3.70476e-12
1.8203e-11
-6.39981e-12
2.07272e-11
4.13921e-12
1.82595e-11
-6.83119e-12
2.11126e-11
4.57598e-12
1.82716e-11
-7.25969e-12
2.14943e-11
5.01354e-12
1.82664e-11
-7.70367e-12
2.1874e-11
5.46471e-12
1.82497e-11
-8.16361e-12
2.22527e-11
5.93182e-12
1.82277e-11
-8.64173e-12
2.2632e-11
6.41607e-12
1.81996e-11
-9.13531e-12
6.91635e-12
1.6454e-13
-1.32872e-12
3.29037e-13
-1.3287e-12
4.93463e-13
-1.32878e-12
6.57762e-13
-1.32866e-12
8.21908e-13
-1.32883e-12
9.85856e-13
-1.32863e-12
1.14956e-12
-1.32888e-12
1.31302e-12
-1.32862e-12
1.47609e-12
-1.32891e-12
1.63895e-12
-1.32865e-12
1.8012e-12
-1.32892e-12
1.9634e-12
-1.32876e-12
2.12459e-12
-1.32884e-12
2.28612e-12
-1.32902e-12
2.44596e-12
-1.32861e-12
2.60693e-12
-1.32953e-12
2.76502e-12
-1.3281e-12
2.92566e-12
-1.33044e-12
3.08148e-12
-1.32714e-12
3.24221e-12
-1.33193e-12
3.39502e-12
-1.32548e-12
3.55646e-12
-1.33423e-12
3.70531e-12
-1.32285e-12
3.86827e-12
-1.3376e-12
4.01203e-12
-1.31901e-12
4.17751e-12
-1.34218e-12
4.31492e-12
-1.31385e-12
4.48394e-12
-1.34794e-12
4.6138e-12
-1.30753e-12
4.78719e-12
-1.35451e-12
4.90856e-12
-1.30064e-12
5.0869e-12
-1.3611e-12
5.19922e-12
-1.29421e-12
5.38271e-12
-1.36653e-12
5.48573e-12
-1.28958e-12
5.67433e-12
-1.36928e-12
5.76794e-12
-1.28833e-12
5.96161e-12
-1.36772e-12
6.04557e-12
-1.29218e-12
6.24452e-12
-1.36014e-12
6.31834e-12
-1.30289e-12
6.52316e-12
-1.34486e-12
6.58593e-12
-1.32217e-12
6.79766e-12
-1.32032e-12
6.84816e-12
-1.35169e-12
7.06833e-12
-1.28526e-12
7.10497e-12
-1.39282e-12
7.3364e-12
-1.23952e-12
7.35648e-12
-1.44558e-12
7.60364e-12
-1.18282e-12
7.60207e-12
-1.50965e-12
7.8688e-12
-1.11346e-12
7.84118e-12
-1.58661e-12
8.13231e-12
-1.03081e-12
8.06999e-12
-1.6736e-12
8.39391e-12
-9.36837e-13
8.28944e-12
-1.77336e-12
8.65518e-12
-8.29361e-13
8.49952e-12
-1.88505e-12
8.91504e-12
-7.07919e-13
8.70052e-12
-2.0093e-12
9.1628e-12
-5.70604e-13
8.88257e-12
-2.14661e-12
9.39101e-12
-4.14058e-13
9.03723e-12
-2.29674e-12
9.60623e-12
-2.34976e-13
9.17216e-12
-2.45998e-12
9.7765e-12
-1.80285e-14
9.25197e-12
-2.63332e-12
9.96204e-12
1.46194e-13
9.33201e-12
-2.81368e-12
1.01621e-11
3.1761e-13
9.41387e-12
-3.00219e-12
1.03687e-11
5.05502e-13
9.49269e-12
-3.20127e-12
1.05778e-11
7.07126e-13
9.57008e-12
-3.413e-12
1.07892e-11
9.2216e-13
9.63615e-12
-3.62847e-12
1.10006e-11
1.14286e-12
9.68714e-12
-3.84619e-12
1.1209e-11
1.36763e-12
9.71794e-12
-4.06378e-12
1.14118e-11
1.59442e-12
9.72429e-12
-4.28056e-12
1.16075e-11
1.82151e-12
9.70292e-12
-4.4952e-12
1.17942e-11
2.04793e-12
9.68325e-12
-4.72025e-12
1.19771e-11
2.28217e-12
9.6727e-12
-4.95533e-12
1.2164e-11
2.52224e-12
9.65726e-12
-5.19694e-12
1.23538e-11
2.76812e-12
9.63307e-12
-5.44284e-12
1.25462e-11
3.01866e-12
9.59666e-12
-5.69215e-12
1.27402e-11
3.2725e-12
9.54947e-12
-5.94454e-12
3.52968e-12
8.02755e-14
-1.409e-12
1.61039e-13
-1.40946e-12
2.40732e-13
-1.40847e-12
3.21957e-13
-1.40989e-12
4.00904e-13
-1.40778e-12
4.82612e-13
-1.41034e-12
5.60584e-13
-1.40685e-12
6.42872e-13
-1.41091e-12
7.19542e-13
-1.40558e-12
8.02602e-13
-1.41171e-12
8.77524e-13
-1.40384e-12
9.61673e-13
-1.41291e-12
1.03425e-12
-1.40141e-12
1.11997e-12
-1.41475e-12
1.18944e-12
-1.39808e-12
1.27742e-12
-1.41752e-12
1.34287e-12
-1.39355e-12
1.43403e-12
-1.42159e-12
1.49443e-12
-1.38754e-12
1.5898e-12
-1.4273e-12
1.6441e-12
-1.37978e-12
1.74475e-12
-1.43489e-12
1.79207e-12
-1.37016e-12
1.89883e-12
-1.44436e-12
1.93865e-12
-1.35883e-12
2.05183e-12
-1.45537e-12
2.08421e-12
-1.34623e-12
2.20345e-12
-1.46718e-12
2.22902e-12
-1.3331e-12
2.35324e-12
-1.47872e-12
2.37306e-12
-1.32046e-12
2.50064e-12
-1.48869e-12
2.51618e-12
-1.30975e-12
2.64533e-12
-1.49568e-12
2.65835e-12
-1.3026e-12
2.78741e-12
-1.49834e-12
2.79917e-12
-1.3001e-12
2.92687e-12
-1.49542e-12
2.93789e-12
-1.3032e-12
3.06368e-12
-1.48594e-12
3.07361e-12
-1.31282e-12
3.19782e-12
-1.46907e-12
3.20546e-12
-1.32982e-12
3.32879e-12
-1.44364e-12
3.33281e-12
-1.35572e-12
3.45491e-12
-1.40735e-12
3.45468e-12
-1.3926e-12
3.57176e-12
-1.3566e-12
3.5708e-12
-1.44461e-12
3.68379e-12
-1.29581e-12
3.68171e-12
-1.50756e-12
3.7927e-12
-1.22445e-12
3.79008e-12
-1.58399e-12
3.89895e-12
-1.13967e-12
3.8973e-12
-1.67196e-12
4.00421e-12
-1.04375e-12
3.99849e-12
-1.76764e-12
4.10937e-12
-9.40232e-13
4.09417e-12
-1.86985e-12
4.21696e-12
-8.30718e-13
4.18482e-12
-1.97715e-12
4.33066e-12
-7.16452e-13
4.2717e-12
-2.08765e-12
4.45706e-12
-5.9942e-13
4.36003e-12
-2.19971e-12
4.60635e-12
-4.81294e-13
4.45806e-12
-2.31169e-12
4.80375e-12
-3.63721e-13
4.5943e-12
-2.42387e-12
4.98417e-12
-2.43678e-13
4.70784e-12
-2.53734e-12
5.14046e-12
-1.15006e-13
4.78777e-12
-2.6495e-12
5.26629e-12
2.69763e-14
4.82173e-12
-2.75671e-12
5.398e-12
1.30853e-13
4.83987e-12
-2.85486e-12
5.52424e-12
2.37793e-13
4.84971e-12
-2.95394e-12
5.64611e-12
3.4647e-13
4.85305e-12
-3.05313e-12
5.76492e-12
4.55759e-13
4.85409e-12
-3.15295e-12
5.88286e-12
5.65654e-13
4.85588e-12
-3.25357e-12
6.00147e-12
6.75928e-13
4.86124e-12
-3.35497e-12
6.12246e-12
7.86712e-13
4.85715e-12
-3.45494e-12
6.24158e-12
8.9775e-13
4.84067e-12
-3.55442e-12
6.35293e-12
1.00999e-12
4.81103e-12
-3.65504e-12
6.45536e-12
1.1238e-12
4.77125e-12
-3.75874e-12
6.55174e-12
1.23817e-12
4.72718e-12
-3.8676e-12
6.64631e-12
1.35337e-12
4.68717e-12
-3.98539e-12
1.47151e-12
2.68497e-14
-1.43585e-12
5.61786e-14
-1.43879e-12
8.05017e-14
-1.4328e-12
1.12513e-13
-1.4419e-12
1.33996e-13
-1.42926e-12
1.69063e-13
-1.44541e-12
1.87252e-13
-1.42504e-12
2.25924e-13
-1.44958e-12
2.40226e-13
-1.41989e-12
2.83113e-13
-1.4546e-12
2.92912e-13
-1.41364e-12
3.40544e-13
-1.46054e-12
3.45328e-13
-1.4062e-12
3.97963e-13
-1.46738e-12
3.97481e-13
-1.39759e-12
4.54872e-13
-1.47491e-12
4.49473e-13
-1.38815e-12
5.10625e-13
-1.48274e-12
5.01552e-13
-1.37846e-12
5.64502e-13
-1.49025e-12
5.54005e-13
-1.36928e-12
6.15715e-13
-1.4966e-12
6.07103e-13
-1.36155e-12
6.63511e-13
-1.50077e-12
6.61032e-13
-1.35635e-12
7.07322e-13
-1.50166e-12
7.1588e-13
-1.35479e-12
7.46886e-13
-1.49819e-12
7.71688e-13
-1.3579e-12
7.82367e-13
-1.4894e-12
8.28551e-13
-1.36665e-12
8.14408e-13
-1.47454e-12
8.86537e-13
-1.38188e-12
8.4393e-13
-1.45307e-12
9.45582e-13
-1.40425e-12
8.71919e-13
-1.42467e-12
1.00582e-12
-1.43399e-12
8.99498e-13
-1.3891e-12
1.06666e-12
-1.47036e-12
9.26701e-13
-1.34598e-12
1.12677e-12
-1.51289e-12
9.54243e-13
-1.29654e-12
1.18438e-12
-1.55996e-12
9.84548e-13
-1.24381e-12
1.23959e-12
-1.61076e-12
1.022e-12
-1.18976e-12
1.29237e-12
-1.66296e-12
1.07409e-12
-1.13832e-12
1.34176e-12
-1.71229e-12
1.13114e-12
-1.08519e-12
1.38573e-12
-1.76215e-12
1.19259e-12
-1.03131e-12
1.41801e-12
-1.80942e-12
1.25881e-12
-9.80474e-13
1.44257e-12
-1.85572e-12
1.32961e-12
-9.30792e-13
1.46506e-12
-1.90309e-12
1.40481e-12
-8.79989e-13
1.48646e-12
-1.9515e-12
1.48407e-12
-8.28326e-13
1.50726e-12
-2.00034e-12
1.56715e-12
-7.76343e-13
1.52891e-12
-2.04941e-12
1.65443e-12
-7.24944e-13
1.55307e-12
-2.09835e-12
1.74709e-12
-6.7532e-13
1.58237e-12
-2.14697e-12
1.845e-12
-6.26348e-13
1.61587e-12
-2.19474e-12
1.94724e-12
-5.75048e-13
1.65142e-12
-2.24152e-12
2.05823e-12
-5.21811e-13
1.69744e-12
-2.28871e-12
2.19084e-12
-4.66426e-13
1.7711e-12
-2.33697e-12
2.30868e-12
-4.06718e-13
1.8416e-12
-2.38779e-12
2.42219e-12
-3.42791e-13
1.90799e-12
-2.43974e-12
2.52919e-12
-2.7473e-13
1.96892e-12
-2.49287e-12
2.62649e-12
-2.0181e-13
2.01893e-12
-2.54539e-12
2.70525e-12
-1.20675e-13
2.04873e-12
-2.59705e-12
2.76809e-12
-4.3436e-14
2.05929e-12
-2.64616e-12
2.83234e-12
1.36626e-14
2.06787e-12
-2.69047e-12
2.89947e-12
6.61467e-14
2.07259e-12
-2.72754e-12
2.97094e-12
1.11632e-13
2.06843e-12
-2.75253e-12
3.04717e-12
1.45059e-13
2.04938e-12
-2.76094e-12
3.11642e-12
1.71121e-13
1.9954e-12
-2.74657e-12
3.16049e-12
1.88271e-13
1.87869e-12
-2.70359e-12
1.82227e-13
4.91664e-16
-1.43634e-12
-2.84924e-15
-1.43545e-12
1.52221e-15
-1.43717e-12
-5.93332e-15
-1.43444e-12
2.74911e-15
-1.43794e-12
-9.26506e-15
-1.43339e-12
4.31241e-15
-1.43862e-12
-1.30264e-14
-1.43224e-12
6.33189e-15
-1.43924e-12
-1.73466e-14
-1.43092e-12
8.9327e-15
-1.43992e-12
-2.23121e-14
-1.4293e-12
1.22666e-14
-1.44078e-12
-2.79258e-14
-1.42719e-12
1.65385e-14
-1.44206e-12
-3.40529e-14
-1.42432e-12
2.18722e-14
-1.44408e-12
-4.05002e-14
-1.42037e-12
2.81979e-14
-1.44716e-12
-4.70298e-14
-1.41503e-12
3.53396e-14
-1.45165e-12
-5.32861e-14
-1.40798e-12
4.29908e-14
-1.45783e-12
-5.88012e-14
-1.39898e-12
5.07688e-14
-1.46592e-12
-6.30241e-14
-1.38786e-12
5.82561e-14
-1.47607e-12
-6.53425e-14
-1.37459e-12
6.50822e-14
-1.48833e-12
-6.51558e-14
-1.35916e-12
7.09026e-14
-1.50271e-12
-6.19553e-14
-1.34169e-12
7.52836e-14
-1.51911e-12
-5.54872e-14
-1.3223e-12
7.75769e-14
-1.53731e-12
-4.58541e-14
-1.30124e-12
7.69803e-14
-1.55683e-12
-3.32126e-14
-1.2789e-12
7.34768e-14
-1.57705e-12
-1.66361e-14
-1.25587e-12
6.80489e-14
-1.59757e-12
4.36931e-15
-1.23286e-12
6.30797e-14
-1.61867e-12
2.8597e-14
-1.20933e-12
5.88868e-14
-1.64105e-12
5.43115e-14
-1.18518e-12
5.46027e-14
-1.66326e-12
7.68292e-14
-1.16055e-12
5.00518e-14
-1.68551e-12
9.9545e-14
-1.13469e-12
4.6065e-14
-1.70867e-12
1.24078e-13
-1.10932e-12
4.63026e-14
-1.73164e-12
1.50403e-13
-1.08457e-12
5.13828e-14
-1.7567e-12
1.7835e-13
-1.05776e-12
5.6744e-14
-1.78148e-12
2.07983e-13
-1.03123e-12
6.31037e-14
-1.80662e-12
2.38945e-13
-1.00417e-12
7.05025e-14
-1.8319e-12
2.70545e-13
-9.76385e-13
7.84622e-14
-1.85732e-12
3.01496e-13
-9.47979e-13
8.61219e-14
-1.88297e-12
3.29555e-13
-9.18753e-13
9.14187e-14
-1.90883e-12
3.53271e-13
-8.88201e-13
9.32028e-14
-1.93467e-12
3.74717e-13
-8.56562e-13
9.38954e-14
-1.9607e-12
3.96027e-13
-8.23942e-13
9.41121e-14
-1.9868e-12
4.1847e-13
-7.90784e-13
9.42469e-14
-2.01275e-12
4.44915e-13
-7.57386e-13
9.49845e-14
-2.03786e-12
4.76884e-13
-7.24691e-13
9.83472e-14
-2.06121e-12
5.16945e-13
-6.93328e-13
1.065e-13
-2.08242e-12
5.68065e-13
-6.63375e-13
1.23798e-13
-2.10112e-12
6.3807e-13
-6.34948e-13
1.58542e-13
-2.11752e-12
7.22589e-13
-6.07483e-13
2.08777e-13
-2.13235e-12
8.02767e-13
-5.80327e-13
2.58779e-13
-2.14648e-12
8.77882e-13
-5.52957e-13
3.11723e-13
-2.16138e-12
9.48815e-13
-5.25461e-13
3.73071e-13
-2.17679e-12
1.01675e-12
-4.98621e-13
4.49947e-13
-2.19414e-12
1.09245e-12
-4.7138e-13
5.6729e-13
-2.22141e-12
1.1953e-12
-4.39741e-13
7.54005e-13
-2.26229e-12
-4.03095e-13
-1.19521e-14
-1.42439e-12
-2.3971e-14
-1.42343e-12
-3.57846e-14
-1.42536e-12
-4.79569e-14
-1.42227e-12
-5.94287e-14
-1.42647e-12
-7.20279e-14
-1.42079e-12
-8.27664e-14
-1.42788e-12
-9.61736e-14
-1.41883e-12
-1.05685e-13
-1.42973e-12
-1.20365e-13
-1.41624e-12
-1.28093e-13
-1.43219e-12
-1.44533e-13
-1.41286e-12
-1.49938e-13
-1.43537e-12
-1.68554e-13
-1.40857e-12
-1.71211e-13
-1.4394e-12
-1.92246e-13
-1.40329e-12
-1.91968e-13
-1.44435e-12
-2.15396e-13
-1.39694e-12
-2.12281e-13
-1.45028e-12
-2.37777e-13
-1.38953e-12
-2.32241e-13
-1.45719e-12
-2.59149e-13
-1.38107e-12
-2.5191e-13
-1.46507e-12
-2.79283e-13
-1.3716e-12
-2.71308e-13
-1.4739e-12
-2.97985e-13
-1.36119e-12
-2.90406e-13
-1.48364e-12
-3.15117e-13
-1.34988e-12
-3.09174e-13
-1.49427e-12
-3.30632e-13
-1.3377e-12
-3.27594e-13
-1.50575e-12
-3.44583e-13
-1.3247e-12
-3.45664e-13
-1.51803e-12
-3.5711e-13
-1.31086e-12
-3.6329e-13
-1.53113e-12
-3.68394e-13
-1.29614e-12
-3.80117e-13
-1.5451e-12
-3.78566e-13
-1.28045e-12
-3.95459e-13
-1.56016e-12
-3.87567e-13
-1.26376e-12
-4.08938e-13
-1.5762e-12
-3.95542e-13
-1.24626e-12
-4.21825e-13
-1.59238e-12
-4.02073e-13
-1.22908e-12
-4.3589e-13
-1.60724e-12
-4.08423e-13
-1.21265e-12
-4.49879e-13
-1.6218e-12
-4.14534e-13
-1.19589e-12
-4.63104e-13
-1.63694e-12
-4.18655e-13
-1.17914e-12
-4.75043e-13
-1.65229e-12
-4.22468e-13
-1.16189e-12
-4.85837e-13
-1.66827e-12
-4.26272e-13
-1.14414e-12
-4.9814e-13
-1.68483e-12
-4.30333e-13
-1.12557e-12
-5.10382e-13
-1.70143e-12
-4.35042e-13
-1.10657e-12
-5.23605e-13
-1.71805e-12
-4.40658e-13
-1.08711e-12
-5.37676e-13
-1.73488e-12
-4.46991e-13
-1.06707e-12
-5.52473e-13
-1.75184e-12
-4.53972e-13
-1.04648e-12
-5.67932e-13
-1.76901e-12
-4.61363e-13
-1.02532e-12
-5.83919e-13
-1.78627e-12
-4.68256e-13
-1.00386e-12
-5.99462e-13
-1.80347e-12
-4.73697e-13
-9.82328e-13
-6.13912e-13
-1.82048e-12
-4.76804e-13
-9.61049e-13
-6.26465e-13
-1.83714e-12
-4.76918e-13
-9.40331e-13
-6.36647e-13
-1.85302e-12
-4.73755e-13
-9.20279e-13
-6.43809e-13
-1.86781e-12
-4.67429e-13
-9.01071e-13
-6.46621e-13
-1.88201e-12
-4.57261e-13
-8.82688e-13
-6.44452e-13
-1.89523e-12
-4.41799e-13
-8.66027e-13
-6.36794e-13
-1.90612e-12
-4.17083e-13
-8.54659e-13
-6.23794e-13
-1.91081e-12
-3.79757e-13
-8.5152e-13
-6.03815e-13
-1.90829e-12
-3.28135e-13
-8.56007e-13
-5.76125e-13
-1.89849e-12
-2.62829e-13
-8.66252e-13
-5.40007e-13
-1.8842e-12
-1.88977e-13
-8.76491e-13
-4.87313e-13
-1.87845e-12
-1.11018e-13
-8.74917e-13
-4.25642e-13
-1.87952e-12
-2.39421e-14
-8.7308e-13
-3.68962e-13
-1.87639e-12
6.90797e-14
-8.77783e-13
-3.24551e-13
-1.86866e-12
-8.85996e-13
-1.46476e-14
-1.40974e-12
-2.91058e-14
-1.40897e-12
-4.39324e-14
-1.41053e-12
-5.8142e-14
-1.40806e-12
-7.31772e-14
-1.41143e-12
-8.70596e-14
-1.40691e-12
-1.02362e-13
-1.41257e-12
-1.15781e-13
-1.40542e-12
-1.31467e-13
-1.41405e-12
-1.44215e-13
-1.40349e-12
-1.60473e-13
-1.41593e-12
-1.72252e-13
-1.40108e-12
-1.89356e-13
-1.41827e-12
-1.99778e-13
-1.39815e-12
-2.18092e-13
-1.42109e-12
-2.26674e-13
-1.3947e-12
-2.46647e-13
-1.42438e-12
-2.52828e-13
-1.39076e-12
-2.74974e-13
-1.42813e-12
-2.78146e-13
-1.38636e-12
-3.0303e-13
-1.4323e-12
-3.0256e-13
-1.38154e-12
-3.30784e-13
-1.43684e-12
-3.26039e-13
-1.37635e-12
-3.58224e-13
-1.44171e-12
-3.48569e-13
-1.37084e-12
-3.85371e-13
-1.44684e-12
-3.7018e-13
-1.36507e-12
-4.12265e-13
-1.45219e-12
-3.9091e-13
-1.35906e-12
-4.38949e-13
-1.45771e-12
-4.108e-13
-1.35285e-12
-4.65465e-13
-1.46337e-12
-4.29866e-13
-1.34645e-12
-4.9183e-13
-1.46917e-12
-4.48085e-13
-1.33988e-12
-5.1806e-13
-1.47513e-12
-4.65419e-13
-1.3331e-12
-5.44329e-13
-1.48125e-12
-4.82022e-13
-1.32606e-12
-5.70831e-13
-1.48739e-12
-4.98387e-13
-1.3187e-12
-5.96258e-13
-1.49451e-12
-5.15076e-13
-1.31026e-12
-6.20243e-13
-1.50207e-12
-5.31739e-13
-1.30115e-12
-6.43319e-13
-1.51022e-12
-5.47841e-13
-1.29137e-12
-6.65777e-13
-1.519e-12
-5.63666e-13
-1.28125e-12
-6.87971e-13
-1.52798e-12
-5.79326e-13
-1.27054e-12
-7.10239e-13
-1.53736e-12
-5.94956e-13
-1.25942e-12
-7.33016e-13
-1.54677e-12
-6.10376e-13
-1.24821e-12
-7.55504e-13
-1.5563e-12
-6.25205e-13
-1.23687e-12
-7.77591e-13
-1.56567e-12
-6.39033e-13
-1.22567e-12
-7.99233e-13
-1.57468e-12
-6.51409e-13
-1.21489e-12
-8.2009e-13
-1.58316e-12
-6.61721e-13
-1.20485e-12
-8.39962e-13
-1.59077e-12
-6.69312e-13
-1.19597e-12
-8.58361e-13
-1.59723e-12
-6.73645e-13
-1.18858e-12
-8.75004e-13
-1.60211e-12
-6.74281e-13
-1.18305e-12
-8.89745e-13
-1.60502e-12
-6.71034e-13
-1.17976e-12
-9.0244e-13
-1.60573e-12
-6.63886e-13
-1.17889e-12
-9.12976e-13
-1.60393e-12
-6.52181e-13
-1.18107e-12
-9.21698e-13
-1.59829e-12
-6.35145e-13
-1.18762e-12
-9.28901e-13
-1.58826e-12
-6.13915e-13
-1.19767e-12
-9.33732e-13
-1.57542e-12
-5.91055e-13
-1.2087e-12
-9.32694e-13
-1.56448e-12
-5.75547e-13
-1.21181e-12
-9.21876e-13
-1.56448e-12
-5.66747e-13
-1.20665e-12
-9.04491e-13
-1.57055e-12
-5.64276e-13
-1.19622e-12
-8.82038e-13
-1.58073e-12
-5.65033e-13
-1.18326e-12
-8.57345e-13
-1.59189e-12
-5.59308e-13
-1.17453e-12
-8.47745e-13
-1.59001e-12
-5.39358e-13
-1.1833e-12
-8.4501e-13
-1.57386e-12
-5.16786e-13
-1.2013e-12
-8.43167e-13
-1.55001e-12
-4.95758e-13
-1.22519e-12
-8.41809e-13
-1.52261e-12
-1.2524e-12
-1.33168e-14
-1.39642e-12
-2.6306e-14
-1.39598e-12
-3.9946e-14
-1.39689e-12
-5.2534e-14
-1.39547e-12
-6.65627e-14
-1.3974e-12
-7.86157e-14
-1.39486e-12
-9.31559e-14
-1.39803e-12
-1.04482e-13
-1.39409e-12
-1.1971e-13
-1.39882e-12
-1.30068e-13
-1.39313e-12
-1.46205e-13
-1.39979e-12
-1.55321e-13
-1.39196e-12
-1.72617e-13
-1.40097e-12
-1.80199e-13
-1.39057e-12
-1.98916e-13
-1.40237e-12
-2.04675e-13
-1.38894e-12
-2.25074e-13
-1.40398e-12
-2.28733e-13
-1.3871e-12
-2.51067e-13
-1.4058e-12
-2.52377e-13
-1.38505e-12
-2.76874e-13
-1.4078e-12
-2.75613e-13
-1.3828e-12
-3.02479e-13
-1.40998e-12
-2.9846e-13
-1.38037e-12
-3.27873e-13
-1.4123e-12
-3.20942e-13
-1.37777e-12
-3.53042e-13
-1.41474e-12
-3.43074e-13
-1.37503e-12
-3.77974e-13
-1.41729e-12
-3.64868e-13
-1.37216e-12
-4.02655e-13
-1.41992e-12
-3.86318e-13
-1.36918e-12
-4.27069e-13
-1.42262e-12
-4.07422e-13
-1.3661e-12
-4.51233e-13
-1.42536e-12
-4.28179e-13
-1.36294e-12
-4.75198e-13
-1.42811e-12
-4.48594e-13
-1.3597e-12
-4.98995e-13
-1.43084e-12
-4.68658e-13
-1.3564e-12
-5.22479e-13
-1.43357e-12
-4.88066e-13
-1.35311e-12
-5.46218e-13
-1.43636e-12
-5.06808e-13
-1.34967e-12
-5.69727e-13
-1.43915e-12
-5.24708e-13
-1.34617e-12
-5.92949e-13
-1.44198e-12
-5.41638e-13
-1.34268e-12
-6.15914e-13
-1.44473e-12
-5.5785e-13
-1.33931e-12
-6.3856e-13
-1.44727e-12
-5.7297e-13
-1.33613e-12
-6.6073e-13
-1.4496e-12
-5.87038e-13
-1.33311e-12
-6.8222e-13
-1.45159e-12
-5.99895e-13
-1.33053e-12
-7.02932e-13
-1.45327e-12
-6.11404e-13
-1.3284e-12
-7.22603e-13
-1.45447e-12
-6.21534e-13
-1.32674e-12
-7.41117e-13
-1.45509e-12
-6.30299e-13
-1.32571e-12
-7.58332e-13
-1.45513e-12
-6.37821e-13
-1.32536e-12
-7.74128e-13
-1.45447e-12
-6.44263e-13
-1.32584e-12
-7.88489e-13
-1.453e-12
-6.50012e-13
-1.32706e-12
-8.01274e-13
-1.45085e-12
-6.55467e-13
-1.32886e-12
-8.12564e-13
-1.44792e-12
-6.60715e-13
-1.33161e-12
-8.22595e-13
-1.44385e-12
-6.66808e-13
-1.33467e-12
-8.3035e-13
-1.44039e-12
-6.76647e-13
-1.33478e-12
-8.31421e-13
-1.44352e-12
-6.92916e-13
-1.32613e-12
-8.27339e-13
-1.45384e-12
-7.13584e-13
-1.31143e-12
-8.19796e-13
-1.4692e-12
-7.3487e-13
-1.29363e-12
-8.15198e-13
-1.48416e-12
-7.42928e-13
-1.28407e-12
-8.20594e-13
-1.48681e-12
-7.42406e-13
-1.28484e-12
-8.31996e-13
-1.48096e-12
-7.3456e-13
-1.29366e-12
-8.47647e-13
-1.46764e-12
-7.21562e-13
-1.30934e-12
-8.65601e-13
-1.44785e-12
-7.10007e-13
-1.33012e-12
-8.75337e-13
-1.42468e-12
-7.06239e-13
-1.3524e-12
-8.7962e-13
-1.40048e-12
-7.04063e-13
-1.37686e-12
-8.79779e-13
-1.3743e-12
-7.01648e-13
-1.40332e-12
-8.78474e-13
-1.34579e-12
-1.43228e-12
-1.06171e-14
-1.38581e-12
-2.09775e-14
-1.38562e-12
-3.18472e-14
-1.38602e-12
-4.19107e-14
-1.38541e-12
-5.30687e-14
-1.38625e-12
-6.27619e-14
-1.38517e-12
-7.42759e-14
-1.38652e-12
-8.34977e-14
-1.38487e-12
-9.54609e-14
-1.38686e-12
-1.04093e-13
-1.3845e-12
-1.16615e-13
-1.38727e-12
-1.24533e-13
-1.38404e-12
-1.3773e-13
-1.38778e-12
-1.44811e-13
-1.38349e-12
-1.58795e-13
-1.38839e-12
-1.64926e-13
-1.38281e-12
-1.79801e-13
-1.38911e-12
-1.84884e-13
-1.38202e-12
-2.00738e-13
-1.38994e-12
-2.04687e-13
-1.3811e-12
-2.21597e-13
-1.39089e-12
-2.24343e-13
-1.38005e-12
-2.42365e-13
-1.39196e-12
-2.43853e-13
-1.37888e-12
-2.6303e-13
-1.39312e-12
-2.63213e-13
-1.37759e-12
-2.83576e-13
-1.39438e-12
-2.82416e-13
-1.37619e-12
-3.03985e-13
-1.39572e-12
-3.01446e-13
-1.3747e-12
-3.24238e-13
-1.39713e-12
-3.20288e-13
-1.37313e-12
-3.4432e-13
-1.39858e-12
-3.38919e-13
-1.3715e-12
-3.64207e-13
-1.40007e-12
-3.57314e-13
-1.36983e-12
-3.83866e-13
-1.40156e-12
-3.75418e-13
-1.36815e-12
-4.03227e-13
-1.40304e-12
-3.93148e-13
-1.36648e-12
-4.2223e-13
-1.40449e-12
-4.10455e-13
-1.36489e-12
-4.40956e-13
-1.40586e-12
-4.27248e-13
-1.36338e-12
-4.5932e-13
-1.40708e-12
-4.43467e-13
-1.36202e-12
-4.77297e-13
-1.40815e-12
-4.59098e-13
-1.36088e-12
-4.94825e-13
-1.409e-12
-4.74178e-13
-1.35996e-12
-5.11799e-13
-1.40965e-12
-4.88595e-13
-1.35933e-12
-5.28161e-13
-1.41003e-12
-5.02375e-13
-1.3589e-12
-5.43847e-13
-1.41012e-12
-5.15591e-13
-1.35879e-12
-5.58899e-13
-1.40996e-12
-5.28334e-13
-1.35896e-12
-5.73266e-13
-1.40954e-12
-5.4068e-13
-1.35933e-12
-5.86925e-13
-1.40885e-12
-5.52778e-13
-1.35986e-12
-5.99912e-13
-1.40799e-12
-5.64943e-13
-1.36033e-12
-6.12101e-13
-1.40731e-12
-5.77389e-13
-1.36055e-12
-6.23656e-13
-1.40673e-12
-5.8995e-13
-1.36076e-12
-6.34405e-13
-1.40639e-12
-6.03581e-13
-1.35968e-12
-6.42402e-13
-1.4091e-12
-6.21195e-13
-1.35282e-12
-6.46726e-13
-1.41832e-12
-6.40445e-13
-1.34095e-12
-6.49821e-13
-1.43101e-12
-6.56039e-13
-1.32856e-12
-6.60236e-13
-1.43932e-12
-6.62652e-13
-1.32371e-12
-6.75816e-13
-1.44067e-12
-6.61837e-13
-1.32541e-12
-6.95658e-13
-1.43538e-12
-6.55864e-13
-1.33342e-12
-7.15591e-13
-1.42443e-12
-6.54108e-13
-1.34556e-12
-7.29952e-13
-1.41097e-12
-6.55029e-13
-1.35976e-12
-7.40863e-13
-1.39513e-12
-6.58406e-13
-1.37612e-12
-7.48739e-13
-1.37731e-12
-6.63928e-13
-1.39415e-12
-7.53737e-13
-1.35804e-12
-6.70292e-13
-1.41357e-12
-7.57193e-13
-1.33778e-12
-6.75324e-13
-1.43427e-12
-7.59816e-13
-1.31599e-12
-6.80284e-13
-1.45639e-12
-7.61701e-13
-1.29288e-12
-6.85394e-13
-1.47963e-12
-7.62794e-13
-1.26839e-12
-1.50432e-12
-7.80798e-15
-1.378e-12
-1.54904e-14
-1.37794e-12
-2.34234e-14
-1.37809e-12
-3.09678e-14
-1.37787e-12
-3.90386e-14
-1.37818e-12
-4.64207e-14
-1.37778e-12
-5.46539e-14
-1.37829e-12
-6.18398e-14
-1.37768e-12
-7.02683e-14
-1.37843e-12
-7.72159e-14
-1.37755e-12
-8.58805e-14
-1.3786e-12
-9.25431e-14
-1.37738e-12
-1.01488e-13
-1.37883e-12
-1.07816e-13
-1.37716e-12
-1.17087e-13
-1.37911e-12
-1.2303e-13
-1.37687e-12
-1.32672e-13
-1.37946e-12
-1.3818e-13
-1.37651e-12
-1.48235e-13
-1.37989e-12
-1.53261e-13
-1.37607e-12
-1.63766e-13
-1.38039e-12
-1.68265e-13
-1.37555e-12
-1.79251e-13
-1.38097e-12
-1.8318e-13
-1.37495e-12
-1.94672e-13
-1.38163e-12
-1.97993e-13
-1.37427e-12
-2.10009e-13
-1.38236e-12
-2.12688e-13
-1.37352e-12
-2.25242e-13
-1.38317e-12
-2.27249e-13
-1.3727e-12
-2.4035e-13
-1.38403e-12
-2.41658e-13
-1.37183e-12
-2.55309e-13
-1.38493e-12
-2.55894e-13
-1.37092e-12
-2.70089e-13
-1.38587e-12
-2.69936e-13
-1.36998e-12
-2.84657e-13
-1.38684e-12
-2.83759e-13
-1.36905e-12
-2.98982e-13
-1.38781e-12
-2.97342e-13
-1.36812e-12
-3.1305e-13
-1.38878e-12
-3.10705e-13
-1.36723e-12
-3.26857e-13
-1.38971e-12
-3.23839e-13
-1.3664e-12
-3.40343e-13
-1.39057e-12
-3.36744e-13
-1.36562e-12
-3.53506e-13
-1.39139e-12
-3.49448e-13
-1.36494e-12
-3.6635e-13
-1.3921e-12
-3.6198e-13
-1.36433e-12
-3.78876e-13
-1.39276e-12
-3.74401e-13
-1.36381e-12
-3.91087e-13
-1.39335e-12
-3.86748e-13
-1.36324e-12
-4.02984e-13
-1.39388e-12
-3.99066e-13
-1.36271e-12
-4.14611e-13
-1.39441e-12
-4.11362e-13
-1.36221e-12
-4.25864e-13
-1.39504e-12
-4.2371e-13
-1.36148e-12
-4.36663e-13
-1.3959e-12
-4.35998e-13
-1.36052e-12
-4.47335e-13
-1.39666e-12
-4.47896e-13
-1.35977e-12
-4.57623e-13
-1.39758e-12
-4.60399e-13
-1.35777e-12
-4.65417e-13
-1.40171e-12
-4.75031e-13
-1.35115e-12
-4.71763e-13
-1.40966e-12
-4.89122e-13
-1.34232e-12
-4.80876e-13
-1.41735e-12
-4.96136e-13
-1.33756e-12
-4.95114e-13
-1.41934e-12