/*--------------------------------*- C++ -*----------------------------------*\
  =========                 |
  \\      /  F ield         | OpenFOAM: The Open Source CFD Toolbox
   \\    /   O peration     | Website:  https://openfoam.org
    \\  /    A nd           | Version:  10
     \\/     M anipulation  |
\*---------------------------------------------------------------------------*/
FoamFile
{
    format      ascii;
    class       volVectorField;
    location    "0.002";
    object      U;
}
// * * * * * * * * * * * * * * * * * * * * * * * * * * * * * * * * * * * * * //

dimensions      [0 1 -1 0 0 0 0];

internalField   nonuniform List<vector> 
10000
(
(1.05818e-06 -5.81463e-11 -1.89008e-06)
(3.24754e-06 -3.44912e-11 -1.89035e-06)
(5.35977e-06 -4.70587e-11 -1.89085e-06)
(7.56054e-06 -3.58117e-11 -1.89157e-06)
(9.65794e-06 -3.16242e-11 -1.8926e-06)
(1.18854e-05 -3.33585e-11 -1.89377e-06)
(1.3952e-05 -3.76726e-11 -1.89534e-06)
(1.62287e-05 -3.32957e-11 -1.89694e-06)
(1.82389e-05 -3.02126e-11 -1.8991e-06)
(2.06002e-05 -3.68437e-11 -1.9011e-06)
(2.25116e-05 -3.20983e-11 -1.90387e-06)
(2.50144e-05 -3.24156e-11 -1.90622e-06)
(2.6757e-05 -4.32265e-11 -1.90968e-06)
(2.94933e-05 -4.28073e-11 -1.91231e-06)
(3.09529e-05 -3.87017e-11 -1.91657e-06)
(3.40705e-05 -3.84654e-11 -1.91935e-06)
(3.50627e-05 -5.21395e-11 -1.92457e-06)
(3.87975e-05 -5.16137e-11 -1.9273e-06)
(3.90282e-05 -4.30028e-11 -1.93374e-06)
(4.37522e-05 -4.56861e-11 -1.93614e-06)
(4.27586e-05 -5.25741e-11 -1.94418e-06)
(4.9052e-05 -5.72874e-11 -1.94578e-06)
(4.61161e-05 -3.70514e-11 -1.95601e-06)
(5.48707e-05 -4.79831e-11 -1.9561e-06)
(4.88958e-05 -3.67627e-11 -1.96943e-06)
(6.14615e-05 -4.83948e-11 -1.9669e-06)
(5.08003e-05 -4.40221e-11 -1.98476e-06)
(6.91848e-05 -5.54404e-11 -1.97784e-06)
(5.14093e-05 -4.52379e-11 -2.00249e-06)
(7.854e-05 -5.78184e-11 -1.98833e-06)
(5.01478e-05 -4.44336e-11 -2.02342e-06)
(9.01975e-05 -6.09514e-11 -1.99744e-06)
(4.6255e-05 -3.9586e-11 -2.04879e-06)
(0.000105026 -5.19451e-11 -2.00367e-06)
(3.87625e-05 -1.36639e-11 -2.08055e-06)
(0.000124108 -8.71667e-11 -2.0048e-06)
(2.64866e-05 5.82481e-11 -2.12139e-06)
(0.00014874 -1.37006e-10 -1.99767e-06)
(8.03772e-06 2.3305e-10 -2.17496e-06)
(0.000180411 -3.39456e-10 -1.97819e-06)
(-1.81524e-05 3.81042e-10 -2.24593e-06)
(0.000220774 -3.11112e-10 -1.94133e-06)
(-5.37929e-05 3.25349e-10 -2.34008e-06)
(0.0002716 -3.53491e-10 -1.88119e-06)
(-0.000100692 6.69825e-10 -2.46374e-06)
(0.000334744 -6.97584e-10 -1.79117e-06)
(-0.000160719 9.0202e-10 -2.62405e-06)
(0.000412102 -1.09542e-09 -1.66425e-06)
(-0.00023577 1.61219e-09 -2.82871e-06)
(0.000505589 -1.60956e-09 -1.49283e-06)
(-0.000327745 1.37132e-09 -3.08605e-06)
(0.000617122 -2.22207e-09 -1.26871e-06)
(-0.000438538 1.98596e-09 -3.40448e-06)
(0.000748607 -1.82226e-09 -9.8261e-07)
(-0.000570031 2.47992e-09 -3.79337e-06)
(0.000901943 -2.9381e-09 -6.24682e-07)
(-0.000724084 1.89043e-09 -4.26243e-06)
(0.00107902 -2.20139e-09 -1.83696e-07)
(-0.000902509 3.12176e-09 -4.82212e-06)
(0.00128174 -4.04999e-09 3.49392e-07)
(-0.00110747 6.54981e-09 -5.48272e-06)
(0.00151193 -5.56364e-09 9.92764e-07)
(-0.00134077 7.02105e-09 -6.25151e-06)
(0.00177141 -6.56306e-09 1.74768e-06)
(-0.00160411 7.60944e-09 -7.13717e-06)
(0.00206198 -7.38582e-09 2.62288e-06)
(-0.00189927 8.07385e-09 -8.15161e-06)
(0.00238546 -1.01012e-08 3.62754e-06)
(-0.00222801 7.96829e-09 -9.30346e-06)
(0.00274365 -7.60707e-09 4.773e-06)
(-0.00259213 5.09836e-09 -1.06035e-05)
(0.00313837 -3.74795e-09 6.06883e-06)
(-0.00299345 3.05369e-09 -1.20612e-05)
(0.00357147 -3.59658e-09 7.52486e-06)
(-0.00343377 2.86382e-09 -1.36862e-05)
(0.00404478 -3.25352e-09 9.14954e-06)
(-0.00391491 4.55887e-09 -1.54885e-05)
(0.00456017 -7.35732e-09 1.09545e-05)
(-0.00443873 8.72637e-09 -1.74773e-05)
(0.00511955 -6.41262e-09 1.29495e-05)
(-0.00500709 5.31723e-09 -1.96662e-05)
(0.00572491 -4.1736e-09 1.51439e-05)
(-0.00562192 1.63563e-09 -2.20619e-05)
(0.0063783 -1.71257e-09 1.75467e-05)
(-0.00628521 1.96971e-10 -2.46774e-05)
(0.0070818 -2.45716e-10 2.01689e-05)
(-0.006999 2.50492e-10 -2.75217e-05)
(0.00783747 -3.03348e-10 2.30201e-05)
(-0.00776536 3.19056e-10 -3.06064e-05)
(0.00864745 -3.05368e-10 2.61107e-05)
(-0.00858641 3.12201e-10 -3.39351e-05)
(0.00951383 -3.26536e-10 2.94474e-05)
(-0.00946425 3.82091e-10 -3.75166e-05)
(0.0104388 -2.42219e-10 3.30359e-05)
(-0.010401 2.64596e-10 -4.13598e-05)
(0.0114244 -1.04383e-10 3.68858e-05)
(-0.0113989 -8.31666e-13 -4.5472e-05)
(0.012473 7.74976e-15 4.10019e-05)
(-0.01246 8.65925e-17 -4.98568e-05)
(0.0135868 -3.16251e-19 4.53903e-05)
(8.40376e-07 1.03832e-10 -2.38769e-06)
(2.58384e-06 8.87971e-11 -2.38793e-06)
(4.25974e-06 9.52646e-11 -2.38842e-06)
(6.01355e-06 8.11774e-11 -2.38908e-06)
(7.67329e-06 7.5205e-11 -2.39008e-06)
(9.45095e-06 8.35622e-11 -2.39116e-06)
(1.10783e-05 7.6596e-11 -2.39268e-06)
(1.29002e-05 7.65542e-11 -2.39416e-06)
(1.44697e-05 7.68739e-11 -2.39622e-06)
(1.63685e-05 7.7616e-11 -2.39809e-06)
(1.78387e-05 7.97505e-11 -2.40072e-06)
(1.98675e-05 8.52574e-11 -2.40293e-06)
(2.11704e-05 9.18409e-11 -2.40617e-06)
(2.3416e-05 8.30007e-11 -2.40868e-06)
(2.44413e-05 8.20181e-11 -2.41259e-06)
(2.70439e-05 8.72396e-11 -2.41533e-06)
(2.7614e-05 7.56846e-11 -2.42001e-06)
(3.07978e-05 7.75249e-11 -2.42284e-06)
(3.06302e-05 8.54747e-11 -2.42844e-06)
(3.47498e-05 7.96301e-11 -2.4312e-06)
(3.34007e-05 8.49624e-11 -2.43795e-06)
(3.9009e-05 8.59128e-11 -2.44034e-06)
(3.57915e-05 7.82697e-11 -2.44862e-06)
(4.37379e-05 7.70375e-11 -2.45015e-06)
(3.76053e-05 8.45873e-11 -2.46061e-06)
(4.91727e-05 8.25447e-11 -2.46044e-06)
(3.85591e-05 7.62494e-11 -2.47423e-06)
(5.56482e-05 8.16766e-11 -2.47082e-06)
(3.82582e-05 9.28356e-11 -2.49001e-06)
(6.36236e-05 6.23136e-11 -2.48062e-06)
(3.61702e-05 9.02083e-11 -2.50884e-06)
(7.37067e-05 5.49428e-11 -2.48868e-06)
(3.16045e-05 1.20419e-10 -2.53225e-06)
(8.66703e-05 -1.33944e-12 -2.49313e-06)
(2.37015e-05 1.03506e-10 -2.56253e-06)
(0.000103455 -9.9415e-12 -2.49122e-06)
(1.14372e-05 2.2718e-10 -2.60298e-06)
(0.000125158 -1.11565e-10 -2.4791e-06)
(-6.35667e-06 2.62147e-10 -2.65793e-06)
(0.000153003 -1.73005e-10 -2.45189e-06)
(-3.09603e-05 5.40588e-10 -2.73279e-06)
(0.000188308 -2.42261e-10 -2.40371e-06)
(-6.37267e-05 6.84426e-10 -2.8339e-06)
(0.000232438 -8.96906e-10 -2.32786e-06)
(-0.000106044 1.20665e-09 -2.96821e-06)
(0.000286775 -8.40949e-10 -2.21705e-06)
(-0.000159303 1.02315e-09 -3.14315e-06)
(0.000352682 -1.22206e-09 -2.06354e-06)
(-0.000224873 1.70148e-09 -3.36641e-06)
(0.000431478 -1.93237e-09 -1.85925e-06)
(-0.000304058 1.52246e-09 -3.64606e-06)
(0.00052442 -1.89619e-09 -1.59654e-06)
(-0.000398077 2.81264e-09 -3.9898e-06)
(0.00063269 -2.5745e-09 -1.26752e-06)
(-0.000508048 3.63551e-09 -4.40556e-06)
(0.000757387 -3.67354e-09 -8.6469e-07)
(-0.000634979 3.46385e-09 -4.90126e-06)
(0.000899531 -3.55597e-09 -3.80938e-07)
(-0.000779779 3.91583e-09 -5.48519e-06)
(0.00106007 -5.70182e-09 1.89966e-07)
(-0.000942978 6.52694e-09 -6.16558e-06)
(0.00124002 -6.42747e-09 8.60112e-07)
(-0.00112609 7.02758e-09 -6.95059e-06)
(0.00144019 -6.47373e-09 1.63868e-06)
(-0.00132987 9.04598e-09 -7.84633e-06)
(0.00166136 -8.35977e-09 2.52992e-06)
(-0.00155503 8.95178e-09 -8.86144e-06)
(0.0019042 -9.29563e-09 3.54177e-06)
(-0.00180222 9.47241e-09 -1.0003e-05)
(0.00216935 -1.11844e-08 4.68251e-06)
(-0.00207203 1.11197e-08 -1.12776e-05)
(0.00245731 -1.25142e-08 5.95811e-06)
(-0.00236493 1.61762e-08 -1.26927e-05)
(0.00276855 -1.40084e-08 7.37506e-06)
(-0.00268136 1.54923e-08 -1.42538e-05)
(0.00310343 -1.57496e-08 8.94001e-06)
(-0.00302166 1.99871e-08 -1.59684e-05)
(0.00346221 -1.838e-08 1.06594e-05)
(-0.00338609 1.80258e-08 -1.78414e-05)
(0.00384509 -1.77796e-08 1.25389e-05)
(-0.00377482 2.38638e-08 -1.9881e-05)
(0.00425207 -2.35346e-08 1.45851e-05)
(-0.00418789 2.61773e-08 -2.20912e-05)
(0.00468306 -2.79926e-08 1.68026e-05)
(-0.00462521 2.61369e-08 -2.44778e-05)
(0.00513781 -2.97993e-08 1.91969e-05)
(-0.00508656 2.70984e-08 -2.70453e-05)
(0.005616 -3.29095e-08 2.17724e-05)
(-0.00557158 3.57829e-08 -2.98002e-05)
(0.00611724 -3.33198e-08 2.45348e-05)
(-0.00607984 3.42899e-08 -3.27458e-05)
(0.00664106 -3.54143e-08 2.74893e-05)
(-0.00661086 4.07068e-08 -3.58776e-05)
(0.00718678 -3.10105e-08 3.06298e-05)
(-0.00716393 3.03206e-08 -3.91981e-05)
(0.00775356 -1.57919e-08 3.39592e-05)
(-0.00773819 -6.70643e-11 -4.27095e-05)
(0.0083404 4.1895e-13 3.7478e-05)
(-0.00833263 4.46594e-15 -4.64143e-05)
(0.00895305 -4.27657e-18 4.11894e-05)
(5.84707e-07 1.98027e-11 -3.31108e-06)
(1.81317e-06 1.8505e-11 -3.31128e-06)
(2.97781e-06 2.08533e-11 -3.31164e-06)
(4.21517e-06 2.18481e-11 -3.31216e-06)
(5.3636e-06 1.93257e-11 -3.31286e-06)
(6.62205e-06 1.58803e-11 -3.31374e-06)
(7.73806e-06 1.69944e-11 -3.31477e-06)
(9.0365e-06 1.7199e-11 -3.31603e-06)
(1.00948e-05 1.76173e-11 -3.31736e-06)
(1.14642e-05 1.57634e-11 -3.31904e-06)
(1.24238e-05 2.06974e-11 -3.3206e-06)
(1.39151e-05 1.7652e-11 -3.32277e-06)
(1.47094e-05 1.65178e-11 -3.32448e-06)
(1.64065e-05 1.44146e-11 -3.32725e-06)
(1.69274e-05 1.58256e-11 -3.32895e-06)
(1.89662e-05 1.43192e-11 -3.3325e-06)
(1.90398e-05 1.77855e-11 -3.33393e-06)
(2.16385e-05 1.21391e-11 -3.33857e-06)
(2.09887e-05 2.34202e-11 -3.33935e-06)
(2.44921e-05 8.8323e-12 -3.34552e-06)
(2.26866e-05 2.04437e-11 -3.34512e-06)
(2.76307e-05 1.05557e-11 -3.35338e-06)
(2.40035e-05 2.16294e-11 -3.35117e-06)
(3.12084e-05 6.89623e-12 -3.36218e-06)
(2.47514e-05 2.79077e-11 -3.3575e-06)
(3.5446e-05 -8.44039e-12 -3.37181e-06)
(2.46653e-05 5.60258e-11 -3.36428e-06)
(4.06503e-05 -2.2278e-11 -3.38191e-06)
(2.33851e-05 3.51782e-11 -3.37208e-06)
(4.72318e-05 -2.03768e-11 -3.39162e-06)
(2.04401e-05 8.77415e-11 -3.38202e-06)
(5.57166e-05 -6.11235e-11 -3.39941e-06)
(1.52415e-05 1.20205e-10 -3.3961e-06)
(6.6748e-05 -6.83168e-11 -3.40275e-06)
(7.08792e-06 1.41012e-10 -3.41734e-06)
(8.10752e-05 -1.18946e-10 -3.39799e-06)
(-4.81796e-06 1.48797e-10 -3.44996e-06)
(9.95305e-05 -1.90795e-10 -3.38032e-06)
(-2.13408e-05 3.1249e-10 -3.49926e-06)
(0.000122998 -2.23962e-10 -3.34392e-06)
(-4.33799e-05 4.67629e-10 -3.57145e-06)
(0.000152382 -3.29523e-10 -3.28221e-06)
(-7.18366e-05 5.50982e-10 -3.67328e-06)
(0.000188575 -5.57279e-10 -3.18824e-06)
(-0.000107585 8.34931e-10 -3.81175e-06)
(0.000232433 -6.10747e-10 -3.05495e-06)
(-0.000151448 1.12172e-09 -3.99373e-06)
(0.000284764 -8.51105e-10 -2.87546e-06)
(-0.000204183 9.64472e-10 -4.2254e-06)
(0.000346305 -9.68307e-10 -2.64286e-06)
(-0.000266496 1.42465e-09 -4.51327e-06)
(0.000417735 -2.07144e-09 -2.35125e-06)
(-0.000339042 1.14126e-09 -4.86294e-06)
(0.000499659 -2.43758e-09 -1.99504e-06)
(-0.000422439 2.00166e-09 -5.27943e-06)
(0.000592615 -2.18717e-09 -1.57003e-06)
(-0.000517263 2.50085e-09 -5.76797e-06)
(0.000697058 -2.7682e-09 -1.07206e-06)
(-0.000624082 3.33708e-09 -6.33288e-06)
(0.000813318 -3.34084e-09 -4.97123e-07)
(-0.000743301 3.91408e-09 -6.97746e-06)
(0.000941564 -3.63634e-09 1.56669e-07)
(-0.000874495 3.35258e-09 -7.70691e-06)
(0.00108205 -4.09393e-09 8.95115e-07)
(-0.001018 4.25122e-09 -8.52413e-06)
(0.00123498 -5.02768e-09 1.72248e-06)
(-0.00117414 3.78073e-09 -9.43156e-06)
(0.00140038 -4.90541e-09 2.63956e-06)
(-0.0013429 5.41632e-09 -1.04327e-05)
(0.00157826 -6.84598e-09 3.6503e-06)
(-0.00152424 8.50357e-09 -1.153e-05)
(0.00176859 -9.30074e-09 4.75829e-06)
(-0.00171812 9.15593e-09 -1.27258e-05)
(0.00197128 -9.65954e-09 5.96478e-06)
(-0.00192444 1.25283e-08 -1.40208e-05)
(0.00218619 -1.01312e-08 7.27155e-06)
(-0.00214302 1.1538e-08 -1.54155e-05)
(0.00241307 -1.54365e-08 8.67787e-06)
(-0.00237361 1.28344e-08 -1.69092e-05)
(0.00265165 -1.5862e-08 1.01832e-05)
(-0.00261594 1.28285e-08 -1.85031e-05)
(0.00290163 -1.62002e-08 1.17888e-05)
(-0.00286965 1.58475e-08 -2.01983e-05)
(0.00316266 -1.54415e-08 1.34949e-05)
(-0.00313441 1.66496e-08 -2.19937e-05)
(0.0034344 -1.81521e-08 1.53016e-05)
(-0.00340984 1.91658e-08 -2.38893e-05)
(0.00371652 -2.09349e-08 1.72076e-05)
(-0.0036956 2.34589e-08 -2.58741e-05)
(0.00400839 -2.38067e-08 1.92028e-05)
(-0.00399106 1.89536e-08 -2.79474e-05)
(0.00430964 -2.38598e-08 2.12862e-05)
(-0.00429586 2.06701e-08 -3.01094e-05)
(0.00462336 -1.97892e-08 2.34573e-05)
(-0.00461311 9.40629e-09 -3.23575e-05)
(0.00494944 -7.09324e-09 2.57149e-05)
(-0.00494266 -2.89954e-11 -3.46923e-05)
(0.00528777 7.30431e-14 2.80583e-05)
(-0.00528441 1.05835e-15 -3.7112e-05)
(0.00563823 9.0688e-19 3.04863e-05)
(3.42768e-07 1.91627e-12 -4.01733e-06)
(1.08884e-06 2.78085e-12 -4.01766e-06)
(1.76924e-06 2.80426e-12 -4.01737e-06)
(2.52467e-06 2.93351e-12 -4.01828e-06)
(3.18791e-06 2.64815e-12 -4.01764e-06)
(3.96544e-06 2.04002e-12 -4.01928e-06)
(4.59433e-06 2.17635e-12 -4.01812e-06)
(5.41403e-06 2.14642e-12 -4.02069e-06)
(5.98151e-06 2.74182e-12 -4.01878e-06)
(6.8765e-06 1.83553e-12 -4.02259e-06)
(7.33855e-06 2.47359e-12 -4.0195e-06)
(8.36392e-06 4.82297e-13 -4.02508e-06)
(8.64857e-06 3.38219e-12 -4.02019e-06)
(9.89493e-06 4.23669e-13 -4.02829e-06)
(9.88543e-06 3.43151e-12 -4.02068e-06)
(1.14998e-05 -3.05474e-13 -4.03241e-06)
(1.1009e-05 4.54865e-12 -4.02072e-06)
(1.32262e-05 -3.13993e-12 -4.03771e-06)
(1.19583e-05 5.52444e-12 -4.02002e-06)
(1.51468e-05 -2.20672e-12 -4.04447e-06)
(1.26426e-05 5.77785e-12 -4.01821e-06)
(1.73696e-05 -7.74371e-12 -4.053e-06)
(1.29301e-05 1.29098e-11 -4.01496e-06)
(2.00492e-05 -1.2507e-11 -4.06356e-06)
(1.2636e-05 1.71554e-11 -4.01004e-06)
(2.33997e-05 -2.0909e-11 -4.07613e-06)
(1.15102e-05 2.45907e-11 -4.0036e-06)
(2.77052e-05 -3.24057e-11 -4.09029e-06)
(9.22968e-06 2.64555e-11 -3.99636e-06)
(3.33239e-05 -5.00047e-11 -4.10482e-06)
(5.39675e-06 4.94525e-11 -3.98993e-06)
(4.06864e-05 -9.60046e-11 -4.11763e-06)
(-4.53213e-07 8.90201e-11 -3.98701e-06)
(5.02839e-05 -1.45875e-10 -4.12552e-06)
(-8.83592e-06 1.33798e-10 -3.99125e-06)
(6.26474e-05 -1.59101e-10 -4.12427e-06)
(-2.0296e-05 1.7664e-10 -4.00729e-06)
(7.83253e-05 -2.60749e-10 -4.10889e-06)
(-3.53833e-05 2.91154e-10 -4.04044e-06)
(9.78602e-05 -3.28866e-10 -4.07386e-06)
(-5.46319e-05 2.88537e-10 -4.09646e-06)
(0.000121771 -4.31574e-10 -4.0134e-06)
(-7.85454e-05 4.36027e-10 -4.18126e-06)
(0.000150542 -5.49664e-10 -3.9218e-06)
(-0.000107587 7.16209e-10 -4.30059e-06)
(0.000184613 -7.62872e-10 -3.79368e-06)
(-0.000142177 8.12649e-10 -4.45989e-06)
(0.000224384 -9.32232e-10 -3.62485e-06)
(-0.000182683 8.33574e-10 -4.66309e-06)
(0.000270203 -1.04424e-09 -3.41261e-06)
(-0.000229417 1.11989e-09 -4.91254e-06)
(0.000322351 -1.48618e-09 -3.15259e-06)
(-0.000282653 1.56691e-09 -5.2123e-06)
(0.000381078 -1.74404e-09 -2.84123e-06)
(-0.000342616 1.74008e-09 -5.56257e-06)
(0.000446546 -1.80781e-09 -2.4786e-06)
(-0.000409453 2.46579e-09 -5.96662e-06)
(0.000518891 -2.5253e-09 -2.06106e-06)
(-0.000483267 2.47746e-09 -6.42518e-06)
(0.000598194 -3.01866e-09 -1.58625e-06)
(-0.000564131 3.19755e-09 -6.93882e-06)
(0.000684511 -3.95333e-09 -1.05479e-06)
(-0.00065216 3.44448e-09 -7.50843e-06)
(0.000777835 -3.57414e-09 -4.68178e-07)
(-0.000747373 4.95772e-09 -8.13489e-06)
(0.00087807 -5.04614e-09 1.76686e-07)
(-0.000849613 4.81284e-09 -8.81779e-06)
(0.000985117 -5.30519e-09 8.79257e-07)
(-0.000958964 4.65697e-09 -9.55553e-06)
(0.00109864 -4.75378e-09 1.63697e-06)
(-0.00107468 5.55099e-09 -1.03469e-05)
(0.00121849 -7.14527e-09 2.44731e-06)
(-0.00119659 7.9689e-09 -1.11917e-05)
(0.0013445 -7.24199e-09 3.31068e-06)
(-0.0013246 7.63927e-09 -1.2091e-05)
(0.00147649 -9.34936e-09 4.22833e-06)
(-0.00145853 8.96702e-09 -1.3044e-05)
(0.00161433 -9.40263e-09 5.19994e-06)
(-0.00159824 9.39159e-09 -1.40425e-05)
(0.00175774 -9.44315e-09 6.21572e-06)
(-0.00174347 9.64167e-09 -1.50847e-05)
(0.00190639 -1.14562e-08 7.27435e-06)
(-0.00189388 1.22732e-08 -1.61686e-05)
(0.00205988 -1.11114e-08 8.37383e-06)
(-0.00204908 1.14003e-08 -1.72923e-05)
(0.00221774 -1.22474e-08 9.51227e-06)
(-0.0022086 1.25975e-08 -1.84545e-05)
(0.002381 -1.49936e-08 1.06878e-05)
(-0.00237347 1.24999e-08 -1.96521e-05)
(0.00254983 -1.36804e-08 1.1898e-05)
(-0.00254386 1.89772e-08 -2.0883e-05)
(0.00272416 -1.5075e-08 1.31379e-05)
(-0.00271963 1.71247e-08 -2.21544e-05)
(0.0029037 -1.48075e-08 1.44165e-05)
(-0.0029005 1.47303e-08 -2.34644e-05)
(0.00308812 -9.61339e-09 1.57332e-05)
(-0.00308611 -4.46131e-11 -2.48137e-05)
(0.00327699 -4.10503e-15 1.7088e-05)
(-0.00327605 8.86293e-16 -2.61997e-05)
(0.0034699 2.1899e-18 1.84791e-05)
(1.41363e-07 -4.10428e-12 -4.45009e-06)
(5.59582e-07 -3.23327e-12 -4.45139e-06)
(8.33245e-07 -3.13777e-12 -4.44881e-06)
(1.2695e-06 -4.47478e-12 -4.45274e-06)
(1.51365e-06 -3.4935e-12 -4.44726e-06)
(1.99062e-06 -5.33262e-12 -4.45434e-06)
(2.17747e-06 -4.04202e-12 -4.44531e-06)
(2.72821e-06 -3.97826e-12 -4.45637e-06)
(2.81595e-06 -4.65456e-12 -4.44276e-06)
(3.49185e-06 -4.65316e-12 -4.45906e-06)
(3.41493e-06 -3.64755e-12 -4.43937e-06)
(4.29758e-06 -4.24066e-12 -4.46267e-06)
(3.95225e-06 -3.82254e-12 -4.43486e-06)
(5.17113e-06 -4.3366e-12 -4.46754e-06)
(4.39404e-06 -1.51264e-12 -4.42887e-06)
(6.15249e-06 -9.3694e-12 -4.47409e-06)
(4.68962e-06 1.33706e-13 -4.421e-06)
(7.30216e-06 -7.60856e-12 -4.48278e-06)
(4.76492e-06 5.13069e-13 -4.41083e-06)
(8.70826e-06 -1.29799e-11 -4.49405e-06)
(4.51509e-06 5.52974e-12 -4.39801e-06)
(1.04941e-05 -1.38331e-11 -4.5082e-06)
(3.79703e-06 8.13079e-12 -4.38238e-06)
(1.28247e-05 -2.03744e-11 -4.52523e-06)
(2.4242e-06 1.25898e-11 -4.3642e-06)
(1.59098e-05 -3.20202e-11 -4.54464e-06)
(1.65522e-07 4.33796e-11 -4.34433e-06)
(2.00014e-05 -4.6173e-11 -4.56518e-06)
(-3.24982e-06 4.0398e-11 -4.32435e-06)
(2.53855e-05 -5.66168e-11 -4.58478e-06)
(-8.12201e-06 5.51374e-11 -4.30671e-06)
(3.23693e-05 -9.62131e-11 -4.60053e-06)
(-1.47664e-05 9.7634e-11 -4.29454e-06)
(4.12675e-05 -1.01375e-10 -4.60883e-06)
(-2.34987e-05 1.36925e-10 -4.29159e-06)
(5.23917e-05 -1.69845e-10 -4.60559e-06)
(-3.46224e-05 1.48636e-10 -4.30189e-06)
(6.60334e-05 -2.35817e-10 -4.58662e-06)
(-4.84191e-05 2.30642e-10 -4.32952e-06)
(8.24556e-05 -3.83293e-10 -4.54779e-06)
(-6.51385e-05 2.99067e-10 -4.37856e-06)
(0.000101886 -3.72426e-10 -4.48518e-06)
(-8.49942e-05 4.11446e-10 -4.45295e-06)
(0.000124514 -4.22586e-10 -4.3948e-06)
(-0.000108164 4.43871e-10 -4.55699e-06)
(0.000150495 -6.79996e-10 -4.27196e-06)
(-0.0001348 5.30585e-10 -4.69517e-06)
(0.00017996 -5.74374e-10 -4.11185e-06)
(-0.000165055 5.13695e-10 -4.87249e-06)
(0.000213047 -5.98041e-10 -3.91787e-06)
(-0.000199022 5.53543e-10 -5.08554e-06)
(0.000249843 -7.22208e-10 -3.68757e-06)
(-0.000236762 7.20182e-10 -5.33784e-06)
(0.000290425 -5.79216e-10 -3.41757e-06)
(-0.000278344 6.13329e-10 -5.62616e-06)
(0.000334871 -8.13558e-10 -3.11133e-06)
(-0.000323826 6.09967e-10 -5.94846e-06)
(0.000383175 -6.77852e-10 -2.77141e-06)
(-0.000373183 8.3742e-10 -6.30326e-06)
(0.000435304 -6.56841e-10 -2.39908e-06)
(-0.000426358 1.15332e-09 -6.68981e-06)
(0.000491194 -9.47022e-10 -1.99511e-06)
(-0.000483255 1.19019e-09 -7.1069e-06)
(0.000550752 -1.45572e-09 -1.55982e-06)
(-0.000543735 1.25616e-09 -7.55298e-06)
(0.000613888 -1.42005e-09 -1.09641e-06)
(-0.000607642 1.82509e-09 -8.02644e-06)
(0.000680536 -2.11829e-09 -6.04677e-07)
(-0.00067477 2.31804e-09 -8.52446e-06)
(0.000750827 -2.63347e-09 -8.83501e-08)
(-0.000745621 3.16306e-09 -9.04435e-06)
(0.000824539 -3.44127e-09 4.48414e-07)
(-0.000819997 3.75683e-09 -9.58402e-06)
(0.00090133 -4.35667e-09 1.00451e-06)
(-0.000897572 3.92171e-09 -1.01417e-05)
(0.000980694 -4.44906e-09 1.57584e-06)
(-0.000977623 5.67131e-09 -1.07146e-05)
(0.00106261 -4.396e-09 2.16187e-06)
(-0.00106019 5.80221e-09 -1.13018e-05)
(0.00114738 -4.84618e-09 2.76064e-06)
(-0.00114559 5.37011e-09 -1.19001e-05)
(0.00123484 -7.44915e-09 3.37013e-06)
(-0.00123362 7.79067e-09 -1.25073e-05)
(0.00132481 -9.32803e-09 3.98824e-06)
(-0.0013241 8.10595e-09 -1.31212e-05)
(0.00141711 -8.86519e-09 4.61283e-06)
(-0.00141681 8.53217e-09 -1.37398e-05)
(0.00151153 -1.09106e-08 5.24237e-06)
(-0.00151155 9.08678e-09 -1.43714e-05)
(0.00160774 -9.43416e-09 5.88531e-06)
(-0.00160815 1.05259e-08 -1.50158e-05)
(0.00170553 -1.1141e-08 6.54085e-06)
(-0.00170621 9.41438e-09 -1.56723e-05)
(0.00180447 -6.88758e-09 7.20896e-06)
(-0.00180529 2.96016e-09 -1.63399e-05)
(0.00190413 -2.13171e-09 7.88709e-06)
(-0.00190492 -5.82029e-12 -1.70188e-05)
(0.00200406 -6.41077e-15 8.57405e-06)
(-0.00200459 4.94887e-17 -1.7711e-05)
(0.00210382 1.67231e-19 9.27067e-06)
(-6.62359e-08 -3.24458e-12 -4.66659e-06)
(3.12082e-07 -6.22565e-12 -4.67021e-06)
(1.49934e-07 -6.22749e-12 -4.66279e-06)
(5.88846e-07 -7.6256e-12 -4.67395e-06)
(3.33178e-07 -5.44836e-12 -4.65825e-06)
(9.02066e-07 -6.09394e-12 -4.67822e-06)
(4.75244e-07 -6.40996e-12 -4.65265e-06)
(1.2628e-06 -8.12417e-12 -4.68339e-06)
(5.61873e-07 -5.0724e-12 -4.64563e-06)
(1.68915e-06 -8.46634e-12 -4.68982e-06)
(5.70471e-07 -4.2967e-12 -4.63686e-06)
(2.20859e-06 -6.2197e-12 -4.69781e-06)
(4.67187e-07 -2.04825e-12 -4.62608e-06)
(2.86106e-06 -9.08342e-12 -4.70758e-06)
(2.03223e-07 -2.38589e-12 -4.61311e-06)
(3.70229e-06 -1.05037e-11 -4.71922e-06)
(-2.88986e-07 2.85036e-13 -4.59792e-06)
(4.8084e-06 -1.4705e-11 -4.73263e-06)
(-1.09924e-06 5.2093e-12 -4.58077e-06)
(6.27947e-06 -1.93623e-11 -4.74744e-06)
(-2.3416e-06 9.39021e-12 -4.56223e-06)
(8.2399e-06 -1.95269e-11 -4.76285e-06)
(-4.15363e-06 1.48027e-11 -4.54338e-06)
(1.08363e-05 -2.73134e-11 -4.77761e-06)
(-6.69248e-06 2.24445e-11 -4.52574e-06)
(1.42326e-05 -4.22912e-11 -4.78995e-06)
(-1.01278e-05 4.18988e-11 -4.51134e-06)
(1.86018e-05 -5.29279e-11 -4.79764e-06)
(-1.46328e-05 4.92076e-11 -4.50259e-06)
(2.41182e-05 -7.19613e-11 -4.79814e-06)
(-2.03759e-05 6.59802e-11 -4.50211e-06)
(3.09496e-05 -9.69242e-11 -4.78876e-06)
(-2.75134e-05 1.36066e-10 -4.51249e-06)
(3.92499e-05 -1.48772e-10 -4.76689e-06)
(-3.61853e-05 1.30936e-10 -4.53631e-06)
(4.91541e-05 -2.34129e-10 -4.73015e-06)
(-4.65118e-05 1.79949e-10 -4.57589e-06)
(6.07787e-05 -2.05112e-10 -4.67645e-06)
(-5.85953e-05 2.12764e-10 -4.6332e-06)
(7.42136e-05 -2.70756e-10 -4.604e-06)
(-7.25186e-05 3.68026e-10 -4.70971e-06)
(8.95196e-05 -3.59348e-10 -4.51118e-06)
(-8.8331e-05 3.31554e-10 -4.80595e-06)
(0.000106716 -4.0172e-10 -4.39747e-06)
(-0.000106029 4.24374e-10 -4.92314e-06)
(0.000125788 -4.27519e-10 -4.26207e-06)
(-0.000125566 5.82889e-10 -5.0613e-06)
(0.000146673 -5.54195e-10 -4.10514e-06)
(-0.000146949 5.47028e-10 -5.22023e-06)
(0.000169368 -4.98243e-10 -3.92748e-06)
(-0.000170304 5.82564e-10 -5.39908e-06)
(0.000193972 -5.17116e-10 -3.72969e-06)
(-0.000195553 5.93494e-10 -5.59696e-06)
(0.0002204 -6.42206e-10 -3.51298e-06)
(-0.000222602 6.79119e-10 -5.81318e-06)
(0.000248875 -6.07034e-10 -3.27822e-06)
(-0.000251684 7.26784e-10 -6.0463e-06)
(0.000279386 -8.00578e-10 -3.02687e-06)
(-0.000282785 1.14866e-09 -6.29506e-06)
(0.000311924 -1.1461e-09 -2.76079e-06)
(-0.00031589 1.20664e-09 -6.55765e-06)
(0.000346469 -1.43791e-09 -2.48189e-06)
(-0.000350973 1.74239e-09 -6.83217e-06)
(0.000382998 -1.90613e-09 -2.19252e-06)
(-0.000387995 1.90274e-09 -7.11676e-06)
(0.000421474 -2.19744e-09 -1.89525e-06)
(-0.0004269 2.20249e-09 -7.40955e-06)
(0.000461856 -2.61757e-09 -1.59284e-06)
(-0.000467636 2.53032e-09 -7.70958e-06)
(0.00050407 -3.01136e-09 -1.28528e-06)
(-0.000510128 2.89212e-09 -8.01574e-06)
(0.000548014 -3.11615e-09 -9.72401e-07)
(-0.000554221 3.08788e-09 -8.32535e-06)
(0.000593592 -2.78324e-09 -6.56651e-07)
(-0.0005997 3.37064e-09 -8.63523e-06)
(0.000640733 -3.89838e-09 -3.42891e-07)
(-0.000646804 3.80942e-09 -8.94211e-06)
(0.000689398 -3.81924e-09 -3.2664e-08)
(-0.00069539 4.71222e-09 -9.25227e-06)
(0.000739427 -4.44238e-09 2.80276e-07)
(-0.000745309 4.10953e-09 -9.56399e-06)
(0.000790645 -4.72261e-09 5.93884e-07)
(-0.000796396 5.57194e-09 -9.87557e-06)
(0.000842824 -5.37406e-09 9.06975e-07)
(-0.000848486 4.95877e-09 -1.01858e-05)
(0.000895706 -5.97958e-09 1.21758e-06)
(-0.000901283 6.8263e-09 -1.04929e-05)
(0.000948982 -6.50832e-09 1.52314e-06)
(-0.00095431 6.65845e-09 -1.07937e-05)
(0.00100231 -7.38207e-09 1.82152e-06)
(-0.0010072 6.88121e-09 -1.10858e-05)
(0.0010553 -7.03416e-09 2.11054e-06)
(-0.00105951 6.74044e-09 -1.13652e-05)
(0.00110742 -6.21341e-09 2.38639e-06)
(-0.00111072 6.72487e-09 -1.16274e-05)
(0.00115809 -3.89424e-09 2.64553e-06)
(-0.00116031 2.16678e-10 -1.18654e-05)
(0.00120659 4.66519e-13 2.88282e-06)
(-0.00120768 -1.34858e-17 -1.20713e-05)
(0.00125205 -3.90675e-19 3.0897e-06)
(-3.54402e-07 -2.39397e-13 -4.74517e-06)
(3.70826e-07 -4.99337e-12 -4.7474e-06)
(-4.21849e-07 -2.47914e-12 -4.74274e-06)
(4.73122e-07 -4.29308e-12 -4.74965e-06)
(-5.78942e-07 -2.19034e-12 -4.73968e-06)
(6.7122e-07 -3.70471e-12 -4.75223e-06)
(-8.40434e-07 -1.8399e-12 -4.73576e-06)
(9.83914e-07 -4.25552e-12 -4.75539e-06)
(-1.22913e-06 -4.5441e-13 -4.73078e-06)
(1.43818e-06 -4.87454e-12 -4.75929e-06)
(-1.77626e-06 -7.84466e-13 -4.72465e-06)
(2.0696e-06 -3.8912e-12 -4.7639e-06)
(-2.52151e-06 1.26244e-12 -4.71747e-06)
(2.92266e-06 -5.2328e-12 -4.76904e-06)
(-3.51301e-06 3.03202e-13 -4.70953e-06)
(4.05107e-06 -5.45801e-12 -4.77426e-06)
(-4.80722e-06 -7.56717e-13 -4.70138e-06)
(5.51637e-06 -7.62017e-12 -4.77881e-06)
(-6.46811e-06 1.41878e-12 -4.69388e-06)
(7.38609e-06 -8.17191e-12 -4.78163e-06)
(-8.56528e-06 8.67752e-12 -4.68824e-06)
(9.73238e-06 -1.49494e-11 -4.78133e-06)
(-1.11718e-05 1.85999e-11 -4.68593e-06)
(1.26294e-05 -2.28657e-11 -4.77631e-06)
(-1.43611e-05 2.31973e-11 -4.6886e-06)
(1.61506e-05 -3.14512e-11 -4.76485e-06)
(-1.82051e-05 1.7252e-11 -4.69799e-06)
(2.03668e-05 -3.33475e-11 -4.74525e-06)
(-2.27712e-05 2.53806e-11 -4.71576e-06)
(2.53437e-05 -5.89718e-11 -4.71599e-06)
(-2.81212e-05 5.79416e-11 -4.74337e-06)
(3.11411e-05 -5.11828e-11 -4.67586e-06)
(-3.43105e-05 8.13248e-11 -4.78202e-06)
(3.78101e-05 -9.73695e-11 -4.624e-06)
(-4.13876e-05 8.40496e-11 -4.83248e-06)
(4.5392e-05 -9.82531e-11 -4.55998e-06)
(-4.9392e-05 1.59608e-10 -4.89516e-06)
(5.39167e-05 -1.44661e-10 -4.48379e-06)
(-5.83519e-05 1.54657e-10 -4.96999e-06)
(6.3408e-05 -2.07514e-10 -4.39565e-06)
(-6.82773e-05 1.84101e-10 -5.05659e-06)
(7.38794e-05 -2.21375e-10 -4.29601e-06)
(-7.91727e-05 2.03487e-10 -5.15422e-06)
(8.53496e-05 -2.01163e-10 -4.18568e-06)
(-9.10601e-05 3.28263e-10 -5.26245e-06)
(9.7835e-05 -2.90035e-10 -4.06667e-06)
(-0.000103963 3.56606e-10 -5.3777e-06)
(0.000111347 -3.45646e-10 -3.94323e-06)
(-0.000117934 3.17556e-10 -5.49575e-06)
(0.000125936 -3.41051e-10 -3.81151e-06)
(-0.000132989 3.5426e-10 -5.62013e-06)
(0.000141624 -3.58056e-10 -3.674e-06)
(-0.000149134 5.10958e-10 -5.74718e-06)
(0.000158444 -4.86415e-10 -3.5347e-06)
(-0.000166399 4.24827e-10 -5.87943e-06)
(0.000176429 -6.23028e-10 -3.3909e-06)
(-0.00018482 5.06173e-10 -6.01758e-06)
(0.000195574 -6.50339e-10 -3.2416e-06)
(-0.000204381 5.48504e-10 -6.16162e-06)
(0.00021586 -8.82332e-10 -3.08728e-06)
(-0.000225063 8.2803e-10 -6.31047e-06)
(0.000237264 -8.27813e-10 -2.92877e-06)
(-0.000246843 1.0333e-09 -6.46324e-06)
(0.000259752 -1.12185e-09 -2.76711e-06)
(-0.00026969 1.23102e-09 -6.61911e-06)
(0.00028328 -1.13101e-09 -2.60308e-06)
(-0.000293573 1.07514e-09 -6.77742e-06)
(0.000307791 -8.65484e-10 -2.43739e-06)
(-0.000318443 6.31893e-10 -6.93746e-06)
(0.000333217 -6.30102e-10 -2.27054e-06)
(-0.000344204 4.69764e-10 -7.09808e-06)
(0.000359479 -2.99954e-10 -2.10337e-06)
(-0.000370749 1.96066e-10 -7.25865e-06)
(0.000386465 -2.42024e-10 -1.93698e-06)
(-0.000397949 2.99226e-10 -7.41864e-06)
(0.00041404 -4.31939e-10 -1.77055e-06)
(-0.000425631 5.08237e-10 -7.5779e-06)
(0.000442027 -5.86325e-10 -1.60503e-06)
(-0.000453598 5.51249e-10 -7.73588e-06)
(0.000470236 -5.83668e-10 -1.44123e-06)
(-0.000481625 7.02766e-10 -7.89161e-06)
(0.000498452 -3.52211e-10 -1.28064e-06)
(-0.000509465 1.86181e-10 -8.04265e-06)
(0.000526457 -8.28385e-11 -1.12478e-06)
(-0.000536823 8.97014e-11 -8.18803e-06)
(0.000554022 -9.59706e-11 -9.7528e-07)
(-0.000563502 1.12322e-10 -8.32631e-06)
(0.000580927 -1.08577e-10 -8.33966e-07)
(-0.000589442 1.11349e-10 -8.45562e-06)
(0.000606975 -1.3682e-10 -7.02404e-07)
(-0.000614452 1.14203e-10 -8.57432e-06)
(0.000632 -1.17815e-10 -5.83993e-07)
(-0.00063836 1.12822e-10 -8.67847e-06)
(0.000655887 -9.24292e-11 -4.82106e-07)
(-0.000661043 9.64436e-11 -8.76299e-06)
(0.000678579 -5.36185e-11 -3.99169e-07)
(-0.00068236 8.77153e-13 -8.82442e-06)
(0.000700167 1.20754e-15 -3.37057e-07)
(-0.000702258 -1.92517e-18 -8.85276e-06)
(0.000720874 -2.54435e-21 -3.07642e-07)
(-4.02786e-07 -2.54128e-12 -4.74885e-06)
(3.23265e-07 -2.20384e-12 -4.74742e-06)
(-5.81557e-07 -1.83366e-12 -4.75019e-06)
(3.4592e-07 -1.64378e-12 -4.74565e-06)
(-8.67558e-07 -2.09068e-12 -4.75148e-06)
(4.84597e-07 -2.16664e-12 -4.7435e-06)
(-1.27968e-06 -2.11034e-12 -4.75287e-06)
(7.63015e-07 -2.20396e-12 -4.7408e-06)
(-1.84518e-06 -2.0676e-12 -4.75452e-06)
(1.21232e-06 -2.08061e-12 -4.73734e-06)
(-2.59757e-06 -1.60548e-12 -4.75667e-06)
(1.86874e-06 -1.86935e-12 -4.73283e-06)
(-3.57418e-06 -1.76808e-12 -4.75965e-06)
(2.77105e-06 -2.39954e-12 -4.72692e-06)
(-4.81354e-06 -1.56092e-12 -4.76388e-06)
(3.9582e-06 -3.05676e-12 -4.71913e-06)
(-6.35307e-06 -1.82919e-12 -4.76988e-06)
(5.46698e-06 -2.36329e-12 -4.70892e-06)
(-8.22712e-06 -1.71068e-12 -4.77825e-06)
(7.33055e-06 -2.91701e-12 -4.69566e-06)
(-1.04657e-05 -1.4671e-12 -4.78963e-06)
(9.57743e-06 -4.15066e-12 -4.67872e-06)
(-1.30937e-05 -1.02274e-12 -4.80468e-06)
(1.2231e-05 -5.46131e-12 -4.65745e-06)
(-1.61306e-05 2.22828e-12 -4.82402e-06)
(1.53094e-05 -6.23858e-12 -4.63129e-06)
(-1.95906e-05 5.01489e-12 -4.8482e-06)
(1.88259e-05 -1.30234e-11 -4.59977e-06)
(-2.34836e-05 1.25778e-11 -4.87768e-06)
(2.27893e-05 -2.53378e-11 -4.56255e-06)
(-2.78158e-05 1.98167e-11 -4.91277e-06)
(2.72044e-05 -1.82548e-11 -4.51942e-06)
(-3.25907e-05 3.94311e-11 -4.95366e-06)
(3.20737e-05 -5.15864e-11 -4.47031e-06)
(-3.78103e-05 6.65512e-11 -5.00029e-06)
(3.73985e-05 -7.46741e-11 -4.41532e-06)
(-4.34765e-05 7.51904e-11 -5.0524e-06)
(4.31816e-05 -8.40913e-11 -4.35472e-06)
(-4.9592e-05 9.93174e-11 -5.10958e-06)
(4.94276e-05 -1.33738e-10 -4.28906e-06)
(-5.61584e-05 1.37653e-10 -5.17128e-06)
(5.61374e-05 -1.67747e-10 -4.21935e-06)
(-6.329e-05 1.63312e-10 -5.23679e-06)
(6.35106e-05 -1.84518e-10 -4.1464e-06)
(-7.10878e-05 1.85873e-10 -5.30509e-06)
(7.15537e-05 -2.09115e-10 -4.07108e-06)
(-7.95555e-05 1.86243e-10 -5.37512e-06)
(8.02699e-05 -2.71227e-10 -3.99359e-06)