/*--------------------------------*- C++ -*----------------------------------*\
  =========                 |
  \\      /  F ield         | OpenFOAM: The Open Source CFD Toolbox
   \\    /   O peration     | Website:  https://openfoam.org
    \\  /    A nd           | Version:  10
     \\/     M anipulation  |
\*---------------------------------------------------------------------------*/
FoamFile
{
    format      ascii;
    class       volVectorField;
    location    "0.002";
    object      U_0;
}
// * * * * * * * * * * * * * * * * * * * * * * * * * * * * * * * * * * * * * //

dimensions      [0 1 -1 0 0 0 0];

internalField   nonuniform List<vector> 
10000
(
(1.05809e-06 -5.81488e-11 -1.88973e-06)
(3.24679e-06 -3.44928e-11 -1.89e-06)
(5.35887e-06 -4.70605e-11 -1.8905e-06)
(7.5589e-06 -3.56621e-11 -1.89122e-06)
(9.65629e-06 -3.16254e-11 -1.89225e-06)
(1.18828e-05 -3.33617e-11 -1.89341e-06)
(1.39497e-05 -3.76742e-11 -1.89499e-06)
(1.62252e-05 -3.3297e-11 -1.89659e-06)
(1.82359e-05 -3.02139e-11 -1.89874e-06)
(2.05955e-05 -3.68453e-11 -1.90074e-06)
(2.25081e-05 -3.21e-11 -1.90351e-06)
(2.50084e-05 -3.2417e-11 -1.90587e-06)
(2.67533e-05 -4.32283e-11 -1.90933e-06)
(2.94857e-05 -4.28089e-11 -1.91196e-06)
(3.09493e-05 -3.87018e-11 -1.91621e-06)
(3.40609e-05 -3.84669e-11 -1.919e-06)
(3.50598e-05 -5.21413e-11 -1.92421e-06)
(3.87853e-05 -5.16155e-11 -1.92696e-06)
(3.90266e-05 -4.30046e-11 -1.93338e-06)
(4.37364e-05 -4.56872e-11 -1.93579e-06)
(4.27596e-05 -5.25772e-11 -1.94382e-06)
(4.90311e-05 -5.72894e-11 -1.94544e-06)
(4.61215e-05 -3.70527e-11 -1.95565e-06)
(5.48427e-05 -4.79848e-11 -1.95576e-06)
(4.89079e-05 -3.67641e-11 -1.96907e-06)
(6.14236e-05 -4.83966e-11 -1.96657e-06)
(5.08225e-05 -4.40238e-11 -1.98439e-06)
(6.91329e-05 -5.54424e-11 -1.97752e-06)
(5.14463e-05 -4.52398e-11 -2.00211e-06)
(7.84689e-05 -5.78202e-11 -1.98803e-06)
(5.02055e-05 -4.44355e-11 -2.02302e-06)
(9.01005e-05 -6.09532e-11 -1.99716e-06)
(4.63409e-05 -3.95877e-11 -2.04837e-06)
(0.000104895 -5.19462e-11 -2.00342e-06)
(3.88857e-05 -1.36627e-11 -2.08008e-06)
(0.000123933 -8.71693e-11 -2.00461e-06)
(2.66573e-05 5.60602e-11 -2.12085e-06)
(0.00014851 -1.36854e-10 -1.99757e-06)
(8.26717e-06 2.33057e-10 -2.17433e-06)
(0.000180115 -3.39457e-10 -1.97821e-06)
(-1.78523e-05 3.77032e-10 -2.24516e-06)
(0.000220399 -3.11124e-10 -1.9415e-06)
(-5.34104e-05 3.25354e-10 -2.33913e-06)
(0.000271136 -3.53419e-10 -1.88154e-06)
(-0.000100216 6.69839e-10 -2.46257e-06)
(0.000334178 -6.89851e-10 -1.79176e-06)
(-0.000160138 9.02042e-10 -2.62264e-06)
(0.000411424 -1.09546e-09 -1.66513e-06)
(-0.000235073 1.61221e-09 -2.82702e-06)
(0.00050479 -1.6096e-09 -1.49402e-06)
(-0.000326924 1.31894e-09 -3.08401e-06)
(0.000616192 -2.22213e-09 -1.27026e-06)
(-0.000437585 1.98601e-09 -3.40209e-06)
(0.000747539 -1.82231e-09 -9.84574e-07)
(-0.000568937 2.47999e-09 -3.79053e-06)
(0.000900729 -2.91961e-09 -6.27121e-07)
(-0.000722843 1.89048e-09 -4.25923e-06)
(0.00107765 -2.20144e-09 -1.86661e-07)
(-0.000901116 3.12185e-09 -4.81839e-06)
(0.00128021 -4.02573e-09 3.45937e-07)
(-0.00110592 6.54991e-09 -5.47852e-06)
(0.00151024 -5.56382e-09 9.88808e-07)
(-0.00133905 7.02126e-09 -6.24682e-06)
(0.00176956 -6.5616e-09 1.74324e-06)
(-0.00160223 7.60965e-09 -7.13193e-06)
(0.00205996 -7.38605e-09 2.61789e-06)
(-0.00189722 8.07214e-09 -8.14583e-06)
(0.00238326 -1.01015e-08 3.62202e-06)
(-0.00222578 7.96854e-09 -9.29722e-06)
(0.00274128 -7.60725e-09 4.76694e-06)
(-0.00258974 5.09846e-09 -1.05966e-05)
(0.00313583 -3.74797e-09 6.06224e-06)
(-0.00299088 3.05365e-09 -1.20539e-05)
(0.00356875 -3.59657e-09 7.51784e-06)
(-0.00343102 2.86377e-09 -1.36785e-05)
(0.00404188 -3.25348e-09 9.1419e-06)
(-0.00391199 4.55884e-09 -1.54803e-05)
(0.0045571 -7.29837e-09 1.09463e-05)
(-0.00443563 8.46436e-09 -1.74687e-05)
(0.00511631 -6.41269e-09 1.29412e-05)
(-0.00500382 5.31718e-09 -1.96571e-05)
(0.00572149 -4.1735e-09 1.51349e-05)
(-0.00561848 1.63541e-09 -2.20524e-05)
(0.0063747 -1.71231e-09 1.75373e-05)
(-0.00628159 1.96689e-10 -2.46675e-05)
(0.00707803 -2.45384e-10 2.01593e-05)
(-0.00699521 2.50189e-10 -2.75116e-05)
(0.00783354 -3.02982e-10 2.30102e-05)
(-0.00776141 3.18655e-10 -3.05961e-05)
(0.00864335 -3.04996e-10 2.61006e-05)
(-0.00858229 3.11818e-10 -3.39246e-05)
(0.00950956 -3.26142e-10 2.9437e-05)
(-0.00945997 3.81634e-10 -3.7506e-05)
(0.0104343 -2.41875e-10 3.30255e-05)
(-0.0103966 2.64254e-10 -4.13492e-05)
(0.0114198 -1.04207e-10 3.68753e-05)
(-0.0113943 -8.30111e-13 -4.54615e-05)
(0.0124683 7.73594e-15 4.09914e-05)
(-0.0124553 8.63868e-17 -4.98463e-05)
(0.0135819 -3.15659e-19 4.538e-05)
(8.40402e-07 1.03837e-10 -2.3873e-06)
(2.58346e-06 8.86115e-11 -2.38755e-06)
(4.25944e-06 9.52199e-11 -2.38804e-06)
(6.01277e-06 8.11809e-11 -2.3887e-06)
(7.6727e-06 7.497e-11 -2.3897e-06)
(9.44972e-06 8.35643e-11 -2.39077e-06)
(1.10775e-05 7.65963e-11 -2.39229e-06)
(1.28985e-05 7.65448e-11 -2.39378e-06)
(1.44688e-05 7.68777e-11 -2.39584e-06)
(1.63661e-05 7.76179e-11 -2.39771e-06)
(1.78377e-05 7.97522e-11 -2.40033e-06)
(1.98643e-05 8.52599e-11 -2.40255e-06)
(2.11697e-05 9.18437e-11 -2.40578e-06)
(2.34118e-05 8.30031e-11 -2.4083e-06)
(2.44412e-05 8.20205e-11 -2.41221e-06)
(2.70382e-05 8.72439e-11 -2.41495e-06)
(2.76149e-05 7.56869e-11 -2.41963e-06)
(3.07901e-05 7.7527e-11 -2.42246e-06)
(3.06329e-05 8.54777e-11 -2.42806e-06)
(3.47391e-05 7.96307e-11 -2.43082e-06)
(3.34064e-05 8.49655e-11 -2.43757e-06)
(3.89939e-05 8.59141e-11 -2.43996e-06)
(3.58018e-05 7.82719e-11 -2.44824e-06)
(4.37165e-05 7.704e-11 -2.44978e-06)
(3.76227e-05 8.45896e-11 -2.46024e-06)
(4.91423e-05 8.25472e-11 -2.46007e-06)
(3.85867e-05 7.62511e-11 -2.47386e-06)
(5.5605e-05 8.16808e-11 -2.47047e-06)
(3.83003e-05 9.28384e-11 -2.48962e-06)
(6.35628e-05 6.24222e-11 -2.48028e-06)
(3.62324e-05 9.02106e-11 -2.50844e-06)
(7.36221e-05 5.49449e-11 -2.48836e-06)
(3.16934e-05 1.20424e-10 -2.53182e-06)
(8.65547e-05 -1.33708e-12 -2.49286e-06)
(2.38251e-05 1.03509e-10 -2.56205e-06)
(0.0001033 -2.74532e-12 -2.49102e-06)
(1.16043e-05 2.2715e-10 -2.60242e-06)
(0.000124954 -1.11568e-10 -2.47901e-06)
(-6.13698e-06 2.62143e-10 -2.65726e-06)
(0.000152742 -1.73012e-10 -2.45194e-06)
(-3.06786e-05 5.39673e-10 -2.73196e-06)
(0.00018798 -2.42271e-10 -2.40394e-06)
(-6.3374e-05 6.83277e-10 -2.83286e-06)
(0.000232034 -8.96661e-10 -2.32832e-06)
(-0.000105612 1.20661e-09 -2.96692e-06)
(0.000286288 -8.12972e-10 -2.21778e-06)
(-0.000158784 1.02318e-09 -3.14159e-06)
(0.000352105 -1.222e-09 -2.0646e-06)
(-0.00022426 1.70104e-09 -3.36453e-06)
(0.000430805 -1.89124e-09 -1.86068e-06)
(-0.000303347 1.47603e-09 -3.64382e-06)
(0.000523646 -1.89625e-09 -1.59838e-06)
(-0.000397264 2.75551e-09 -3.98717e-06)
(0.000631813 -2.5746e-09 -1.26976e-06)
(-0.00050713 3.63565e-09 -4.40248e-06)
(0.000756403 -3.67367e-09 -8.67392e-07)
(-0.000633954 3.46378e-09 -4.8978e-06)
(0.000898438 -3.48159e-09 -3.84123e-07)
(-0.000778646 3.91597e-09 -5.48126e-06)
(0.00105887 -5.61788e-09 1.86316e-07)
(-0.000941738 6.52717e-09 -6.16118e-06)
(0.00123871 -6.40578e-09 8.55971e-07)
(-0.00112474 7.02776e-09 -6.94574e-06)
(0.00143877 -6.4739e-09 1.63406e-06)
(-0.00132841 9.02018e-09 -7.84098e-06)
(0.00165983 -8.36001e-09 2.52483e-06)
(-0.00155347 8.95212e-09 -8.85558e-06)
(0.00190257 -9.29595e-09 3.53619e-06)
(-0.00180056 9.47278e-09 -9.99669e-06)
(0.00216761 -1.10445e-08 4.67644e-06)
(-0.00207026 1.11197e-08 -1.12708e-05)
(0.00245548 -1.25148e-08 5.95158e-06)
(-0.00236306 1.61769e-08 -1.26855e-05)
(0.00276661 -1.4009e-08 7.36812e-06)
(-0.00267939 1.54929e-08 -1.42462e-05)
(0.0031014 -1.57408e-08 8.9326e-06)
(-0.0030196 1.9988e-08 -1.59604e-05)
(0.00346009 -1.83806e-08 1.06515e-05)
(-0.00338395 1.80265e-08 -1.78332e-05)
(0.00384288 -1.77804e-08 1.25309e-05)
(-0.00377259 2.38648e-08 -1.98723e-05)
(0.00424979 -2.35357e-08 1.45766e-05)
(-0.00418558 2.61785e-08 -2.20823e-05)
(0.0046807 -2.79938e-08 1.67939e-05)
(-0.00462283 2.61381e-08 -2.44686e-05)
(0.00513538 -2.98006e-08 1.9188e-05)
(-0.00508411 2.70989e-08 -2.70359e-05)
(0.00561351 -3.2911e-08 2.17632e-05)
(-0.00556907 3.57845e-08 -2.97906e-05)
(0.00611468 -3.33213e-08 2.45255e-05)
(-0.00607727 3.40199e-08 -3.27362e-05)
(0.00663845 -3.5416e-08 2.74798e-05)
(-0.00660824 4.07051e-08 -3.5868e-05)
(0.00718413 -3.1012e-08 3.06203e-05)
(-0.00716127 3.03212e-08 -3.91885e-05)
(0.00775086 -1.57927e-08 3.39498e-05)
(-0.00773548 -6.69512e-11 -4.27e-05)
(0.00833767 4.18237e-13 3.74687e-05)
(-0.0083299 4.45763e-15 -4.6405e-05)
(0.00895028 -4.27631e-18 4.11802e-05)
(5.84833e-07 1.98014e-11 -3.31068e-06)
(1.81312e-06 1.8504e-11 -3.31088e-06)
(2.97805e-06 2.07126e-11 -3.31123e-06)
(4.21516e-06 2.18456e-11 -3.31176e-06)
(5.36399e-06 1.93172e-11 -3.31245e-06)
(6.62203e-06 1.58763e-11 -3.31334e-06)
(7.73864e-06 1.69921e-11 -3.31437e-06)
(9.0364e-06 1.7199e-11 -3.31563e-06)
(1.00957e-05 1.76148e-11 -3.31695e-06)
(1.14639e-05 1.57615e-11 -3.31863e-06)
(1.24251e-05 2.06873e-11 -3.32021e-06)
(1.39145e-05 1.76507e-11 -3.32237e-06)
(1.47114e-05 1.65159e-11 -3.32409e-06)
(1.64052e-05 1.4414e-11 -3.32685e-06)
(1.69303e-05 1.55782e-11 -3.32855e-06)
(1.89639e-05 1.43185e-11 -3.3321e-06)
(1.90442e-05 1.77873e-11 -3.33354e-06)
(2.16346e-05 1.21386e-11 -3.33817e-06)
(2.09953e-05 2.33973e-11 -3.33897e-06)
(2.44856e-05 9.08785e-12 -3.34511e-06)
(2.26966e-05 2.03123e-11 -3.34476e-06)
(2.76203e-05 1.05551e-11 -3.35297e-06)
(2.40185e-05 2.16285e-11 -3.35082e-06)
(3.11923e-05 6.89542e-12 -3.36177e-06)
(2.47736e-05 2.79075e-11 -3.35716e-06)
(3.54215e-05 -8.44185e-12 -3.3714e-06)
(2.46978e-05 5.594e-11 -3.36396e-06)
(4.0614e-05 -2.2259e-11 -3.38149e-06)
(2.34317e-05 3.518e-11 -3.37176e-06)
(4.71792e-05 -2.03786e-11 -3.39122e-06)
(2.05057e-05 8.77436e-11 -3.3817e-06)
(5.56426e-05 -6.11248e-11 -3.39903e-06)
(1.53318e-05 1.20206e-10 -3.39575e-06)
(6.66466e-05 -6.83179e-11 -3.40242e-06)
(7.20906e-06 1.41017e-10 -3.41693e-06)
(8.094e-05 -1.18952e-10 -3.39774e-06)
(-4.65943e-06 1.48802e-10 -3.44946e-06)
(9.93549e-05 -1.90803e-10 -3.3802e-06)
(-2.11384e-05 3.12497e-10 -3.49863e-06)
(0.000122776 -2.23817e-10 -3.34399e-06)
(-4.31277e-05 4.6764e-10 -3.57062e-06)
(0.000152107 -3.29536e-10 -3.28251e-06)
(-7.15293e-05 5.50993e-10 -3.67221e-06)
(0.000188243 -5.57291e-10 -3.18881e-06)
(-0.000107218 8.34951e-10 -3.81038e-06)
(0.00023204 -6.10766e-10 -3.05583e-06)
(-0.000151018 1.12175e-09 -3.99206e-06)
(0.000284306 -8.51129e-10 -2.87668e-06)
(-0.000203687 9.64493e-10 -4.2234e-06)
(0.000345781 -9.60677e-10 -2.64448e-06)
(-0.000265933 1.4247e-09 -4.51091e-06)
(0.000417143 -2.06263e-09 -2.35329e-06)
(-0.000338412 1.14128e-09 -4.86018e-06)
(0.000498999 -2.43764e-09 -1.99742e-06)
(-0.00042174 2.00171e-09 -5.27626e-06)
(0.000591887 -2.18722e-09 -1.57283e-06)
(-0.000516497 2.50092e-09 -5.76446e-06)
(0.000696264 -2.76828e-09 -1.07527e-06)
(-0.000623247 3.33718e-09 -6.329e-06)
(0.000812461 -3.34013e-09 -5.00737e-07)
(-0.000742402 3.91417e-09 -6.97319e-06)
(0.000940646 -3.63641e-09 1.52638e-07)
(-0.000873538 3.35264e-09 -7.70229e-06)
(0.00108108 -4.09403e-09 8.90685e-07)
(-0.00101698 4.25129e-09 -8.51911e-06)
(0.00123395 -5.02779e-09 1.71777e-06)
(-0.00117307 3.78079e-09 -9.42617e-06)
(0.0013993 -4.90524e-09 2.63451e-06)
(-0.00134178 5.41617e-09 -1.04269e-05)
(0.00157713 -6.84617e-09 3.64489e-06)
(-0.00152308 8.50381e-09 -1.1524e-05)
(0.00176742 -9.29972e-09 4.75256e-06)
(-0.00171692 9.15615e-09 -1.27196e-05)
(0.00197007 -9.65983e-09 5.95876e-06)
(-0.0019232 1.25286e-08 -1.40142e-05)
(0.00218494 -1.013e-08 7.26528e-06)
(-0.00214175 1.15383e-08 -1.54088e-05)
(0.0024118 -1.5437e-08 8.67136e-06)
(-0.00237232 1.28348e-08 -1.69023e-05)
(0.00265036 -1.57345e-08 1.01765e-05)
(-0.00261462 1.2698e-08 -1.84961e-05)
(0.00290031 -1.6199e-08 1.1782e-05)
(-0.00286832 1.58479e-08 -2.01912e-05)
(0.00316133 -1.54342e-08 1.34881e-05)
(-0.00313306 1.66501e-08 -2.19865e-05)
(0.00343306 -1.81526e-08 1.52947e-05)
(-0.00340849 1.91663e-08 -2.38822e-05)
(0.00371518 -2.0935e-08 1.72007e-05)
(-0.00369424 2.34595e-08 -2.58669e-05)
(0.00400705 -2.38074e-08 1.91958e-05)
(-0.00398971 1.89453e-08 -2.79404e-05)
(0.0043083 -2.38604e-08 2.12795e-05)
(-0.00429452 2.06704e-08 -3.01023e-05)
(0.00462203 -1.97897e-08 2.34506e-05)
(-0.00461177 9.40621e-09 -3.23507e-05)
(0.00494811 -7.09329e-09 2.57084e-05)
(-0.00494133 -2.89453e-11 -3.46856e-05)
(0.00528646 7.29581e-14 2.80519e-05)
(-0.00528309 1.05637e-15 -3.71056e-05)
(0.00563694 9.0255e-19 3.04801e-05)
(3.42967e-07 1.91608e-12 -4.01699e-06)
(1.08897e-06 2.77985e-12 -4.01732e-06)
(1.76981e-06 2.80385e-12 -4.01703e-06)
(2.52509e-06 2.93334e-12 -4.01794e-06)
(3.18888e-06 2.64606e-12 -4.0173e-06)
(3.96609e-06 2.03912e-12 -4.01893e-06)
(4.59577e-06 2.17636e-12 -4.0178e-06)
(5.41483e-06 2.15408e-12 -4.02035e-06)
(5.98352e-06 2.74705e-12 -4.01845e-06)
(6.87734e-06 1.83397e-12 -4.02224e-06)
(7.34129e-06 2.47033e-12 -4.01918e-06)
(8.36458e-06 5.92993e-13 -4.02472e-06)
(8.65227e-06 3.38132e-12 -4.01988e-06)
(9.89512e-06 4.57202e-13 -4.02793e-06)
(9.89045e-06 3.43139e-12 -4.02038e-06)
(1.14991e-05 -3.00256e-13 -4.03205e-06)
(1.10159e-05 4.54864e-12 -4.02044e-06)
(1.32238e-05 -3.13846e-12 -4.03733e-06)
(1.19679e-05 5.52703e-12 -4.01976e-06)
(1.51418e-05 -2.20872e-12 -4.04407e-06)
(1.26561e-05 5.78049e-12 -4.01798e-06)
(1.73605e-05 -7.74386e-12 -4.05258e-06)
(1.29492e-05 1.29101e-11 -4.01476e-06)
(2.0034e-05 -1.25076e-11 -4.0631e-06)
(1.26629e-05 1.71558e-11 -4.00989e-06)
(2.3376e-05 -2.09095e-11 -4.07565e-06)
(1.15478e-05 2.45904e-11 -4.00348e-06)
(2.76696e-05 -3.04261e-11 -4.08978e-06)
(9.28141e-06 2.64557e-11 -3.99626e-06)
(3.32728e-05 -5.00061e-11 -4.10432e-06)
(5.46659e-06 4.94544e-11 -3.98985e-06)
(4.06157e-05 -9.60095e-11 -4.11714e-06)
(-3.61007e-07 8.47357e-11 -3.9869e-06)
(5.01892e-05 -1.44704e-10 -4.12509e-06)
(-8.71709e-06 1.33494e-10 -3.99108e-06)
(6.25246e-05 -1.59106e-10 -4.12393e-06)
(-2.01465e-05 1.76644e-10 -4.00701e-06)
(7.81707e-05 -2.60759e-10 -4.1087e-06)
(-3.51998e-05 2.88969e-10 -4.04001e-06)
(9.76706e-05 -3.26407e-10 -4.07388e-06)
(-5.44114e-05 2.88536e-10 -4.09581e-06)
(0.000121544 -4.31549e-10 -4.01365e-06)
(-7.82858e-05 4.3604e-10 -4.18035e-06)
(0.000150275 -5.46046e-10 -3.92235e-06)
(-0.000107287 7.16232e-10 -4.29936e-06)
(0.000184306 -7.62896e-10 -3.79454e-06)
(-0.000141835 8.12674e-10 -4.45832e-06)
(0.000224036 -9.32265e-10 -3.626e-06)
(-0.0001823 8.33602e-10 -4.66122e-06)
(0.000269814 -1.03852e-09 -3.41411e-06)
(-0.000228994 1.11993e-09 -4.91033e-06)
(0.000321923 -1.48622e-09 -3.15443e-06)
(-0.00028219 1.5666e-09 -5.20975e-06)
(0.00038061 -1.74409e-09 -2.8434e-06)
(-0.000342115 1.74015e-09 -5.55976e-06)
(0.000446042 -1.80787e-09 -2.48103e-06)
(-0.000408917 2.46589e-09 -5.96358e-06)
(0.000518354 -2.52539e-09 -2.06379e-06)
(-0.000482698 2.47703e-09 -6.42187e-06)
(0.000597625 -3.01877e-09 -1.58926e-06)
(-0.000563531 3.19764e-09 -6.93525e-06)
(0.000683914 -3.95347e-09 -1.05808e-06)
(-0.000651532 3.44462e-09 -7.50463e-06)
(0.000777213 -3.57428e-09 -4.71739e-07)
(-0.000746722 4.95776e-09 -8.13088e-06)
(0.000877427 -5.04633e-09 1.72946e-07)
(-0.000848941 4.81299e-09 -8.81356e-06)
(0.000984457 -5.30539e-09 8.75338e-07)
(-0.000958276 4.65714e-09 -9.55116e-06)
(0.00109797 -4.75392e-09 1.63291e-06)
(-0.00107398 5.55116e-09 -1.03424e-05)
(0.00121781 -7.1455e-09 2.44305e-06)
(-0.00119589 7.96917e-09 -1.11872e-05)
(0.00134381 -7.24223e-09 3.30635e-06)
(-0.00132389 7.63861e-09 -1.20863e-05)
(0.00147581 -9.33283e-09 4.22387e-06)
(-0.00145782 8.96731e-09 -1.30393e-05)
(0.00161365 -9.4029e-09 5.19543e-06)
(-0.00159754 9.39189e-09 -1.40378e-05)
(0.00175706 -9.44342e-09 6.21116e-06)
(-0.00174278 9.64199e-09 -1.50801e-05)
(0.00190573 -1.14565e-08 7.26996e-06)
(-0.00189321 1.22736e-08 -1.61641e-05)
(0.00205923 -1.11117e-08 8.36952e-06)
(-0.00204843 1.14006e-08 -1.72879e-05)
(0.00221712 -1.22478e-08 9.50806e-06)
(-0.00220797 1.25979e-08 -1.84502e-05)
(0.00238039 -1.49725e-08 1.06836e-05)
(-0.00237285 1.24783e-08 -1.9648e-05)
(0.00254924 -1.36807e-08 1.1894e-05)
(-0.00254326 1.8955e-08 -2.0879e-05)
(0.00272359 -1.49758e-08 1.31345e-05)
(-0.00271906 1.71252e-08 -2.21505e-05)
(0.00290317 -1.4808e-08 1.4413e-05)
(-0.00289996 1.47309e-08 -2.34609e-05)
(0.00308762 -9.61241e-09 1.57298e-05)
(-0.00308561 -4.45473e-11 -2.48102e-05)
(0.00327653 -4.02886e-15 1.70849e-05)
(-0.00327559 8.85093e-16 -2.61966e-05)
(0.00346948 2.18384e-18 1.84763e-05)
(1.4178e-07 -4.10476e-12 -4.44987e-06)
(5.59535e-07 -3.23342e-12 -4.45116e-06)
(8.34098e-07 -3.12427e-12 -4.4486e-06)
(1.26974e-06 -4.47287e-12 -4.45251e-06)
(1.51502e-06 -3.49441e-12 -4.44705e-06)
(1.99107e-06 -5.33426e-12 -4.45409e-06)
(2.17945e-06 -4.0433e-12 -4.44511e-06)
(2.72874e-06 -3.97833e-12 -4.45612e-06)
(2.81871e-06 -4.65402e-12 -4.44258e-06)
(3.49226e-06 -4.6234e-12 -4.45879e-06)
(3.4187e-06 -3.64851e-12 -4.43921e-06)
(4.2976e-06 -4.23351e-12 -4.46238e-06)
(3.95738e-06 -3.8257e-12 -4.43472e-06)
(5.17032e-06 -4.33716e-12 -4.46723e-06)
(4.40105e-06 -1.51265e-12 -4.42875e-06)
(6.15021e-06 -9.36947e-12 -4.47376e-06)
(4.69925e-06 -6.06825e-14 -4.42091e-06)
(7.29749e-06 -7.60813e-12 -4.48241e-06)
(4.77826e-06 5.13348e-13 -4.41078e-06)
(8.69993e-06 -1.23812e-11 -4.49364e-06)
(4.53355e-06 5.52866e-12 -4.39801e-06)
(1.04804e-05 -1.38343e-11 -4.50774e-06)
(3.82246e-06 8.131e-12 -4.38242e-06)
(1.28036e-05 -2.03749e-11 -4.52474e-06)
(2.45886e-06 1.25902e-11 -4.36428e-06)
(1.58788e-05 -3.20213e-11 -4.54411e-06)
(2.1199e-07 4.33826e-11 -4.34443e-06)
(1.99577e-05 -4.60283e-11 -4.56464e-06)
(-3.18881e-06 4.04013e-11 -4.32446e-06)
(2.53265e-05 -5.662e-11 -4.58425e-06)
(-8.04374e-06 5.51375e-11 -4.30679e-06)
(3.22924e-05 -9.62137e-11 -4.60005e-06)
(-1.46684e-05 9.76317e-11 -4.29456e-06)
(4.11704e-05 -1.01374e-10 -4.60844e-06)
(-2.33789e-05 1.36929e-10 -4.29151e-06)
(5.22724e-05 -1.69771e-10 -4.60534e-06)
(-3.44793e-05 1.4864e-10 -4.30167e-06)
(6.58908e-05 -2.35825e-10 -4.58654e-06)
(-4.82516e-05 2.30213e-10 -4.32913e-06)
(8.22891e-05 -3.83306e-10 -4.54793e-06)
(-6.49464e-05 2.99075e-10 -4.37796e-06)
(0.000101696 -3.71865e-10 -4.48557e-06)
(-8.47777e-05 3.97731e-10 -4.45209e-06)
(0.000124301 -4.22596e-10 -4.39549e-06)
(-0.000107924 4.43881e-10 -4.55582e-06)
(0.00015026 -6.80016e-10 -4.27302e-06)
(-0.000134537 5.30412e-10 -4.69361e-06)
(0.000179703 -5.74387e-10 -4.1133e-06)
(-0.00016477 5.13706e-10 -4.87054e-06)
(0.000212769 -5.98055e-10 -3.91957e-06)
(-0.000198716 5.53553e-10 -5.08331e-06)
(0.000249547 -7.22223e-10 -3.68954e-06)
(-0.000236438 7.20197e-10 -5.33521e-06)
(0.000290111 -5.79221e-10 -3.41997e-06)
(-0.000278002 6.13335e-10 -5.62347e-06)
(0.000334541 -8.13571e-10 -3.11379e-06)
(-0.00032347 6.09967e-10 -5.94564e-06)
(0.000382832 -6.77848e-10 -2.77403e-06)
(-0.000372814 8.37321e-10 -6.30029e-06)
(0.00043495 -6.28886e-10 -2.40181e-06)
(-0.00042598 1.15332e-09 -6.68675e-06)
(0.000490832 -9.16994e-10 -1.99794e-06)
(-0.000482871 1.19019e-09 -7.10378e-06)
(0.000550386 -1.45573e-09 -1.56274e-06)
(-0.000543349 1.25615e-09 -7.54982e-06)
(0.000613521 -1.41819e-09 -1.09935e-06)
(-0.000607258 1.8251e-09 -8.02325e-06)
(0.00068017 -2.11831e-09 -6.07622e-07)
(-0.000674388 2.31806e-09 -8.52129e-06)
(0.000750465 -2.63352e-09 -9.12618e-08)
(-0.000745243 3.12392e-09 -9.04128e-06)
(0.000824184 -3.44131e-09 4.45508e-07)
(-0.000819629 3.75689e-09 -9.58101e-06)
(0.000900987 -4.35678e-09 1.00167e-06)
(-0.000897218 3.9218e-09 -1.01388e-05)
(0.000980369 -4.44916e-09 1.57315e-06)
(-0.000977287 5.67145e-09 -1.07119e-05)
(0.0010623 -4.39609e-09 2.15937e-06)
(-0.00105987 5.80234e-09 -1.12992e-05)
(0.00114709 -4.84629e-09 2.75824e-06)
(-0.00114529 5.37025e-09 -1.18977e-05)
(0.00123457 -7.43782e-09 3.36793e-06)
(-0.00123334 7.79089e-09 -1.25051e-05)
(0.00132456 -9.31634e-09 3.98624e-06)
(-0.00132383 8.10621e-09 -1.31191e-05)
(0.00141688 -8.86545e-09 4.61104e-06)
(-0.00141657 8.53242e-09 -1.3738e-05)
(0.00151133 -1.09109e-08 5.24068e-06)
(-0.00151134 9.08706e-09 -1.43698e-05)
(0.00160757 -9.43443e-09 5.88381e-06)
(-0.00160797 1.05262e-08 -1.50143e-05)
(0.00170539 -1.11279e-08 6.53986e-06)
(-0.00170607 9.35685e-09 -1.5671e-05)
(0.00180436 -6.8877e-09 7.20794e-06)
(-0.00180518 2.95992e-09 -1.6339e-05)
(0.00190406 -2.0581e-09 7.88613e-06)
(-0.00190486 -5.80814e-12 -1.7018e-05)
(0.00200404 -6.24726e-15 8.57351e-06)
(-0.00200458 4.94389e-17 -1.77103e-05)
(0.00210385 1.66818e-19 9.27026e-06)
(-6.47859e-08 -3.24393e-12 -4.66649e-06)
(3.10897e-07 -6.22754e-12 -4.67009e-06)
(1.51848e-07 -6.22526e-12 -4.66271e-06)
(5.87716e-07 -7.62759e-12 -4.67381e-06)
(3.35744e-07 -5.44607e-12 -4.65818e-06)
(9.00769e-07 -6.09353e-12 -4.67805e-06)
(4.78707e-07 -6.41141e-12 -4.65261e-06)
(1.26106e-06 -8.12327e-12 -4.6832e-06)
(5.66554e-07 -5.07246e-12 -4.64562e-06)
(1.6866e-06 -8.45543e-12 -4.68962e-06)
(5.76793e-07 -4.29922e-12 -4.63687e-06)
(2.20475e-06 -6.22184e-12 -4.69759e-06)
(4.75723e-07 -2.05726e-12 -4.62611e-06)
(2.85528e-06 -9.08712e-12 -4.70733e-06)
(2.14748e-07 -2.38672e-12 -4.61316e-06)
(3.69369e-06 -1.04995e-11 -4.71895e-06)
(-2.73463e-07 2.85111e-13 -4.59799e-06)
(4.79588e-06 -1.46935e-11 -4.73235e-06)
(-1.07845e-06 5.2101e-12 -4.58085e-06)
(6.26167e-06 -1.9363e-11 -4.74715e-06)
(-2.31405e-06 9.39091e-12 -4.56231e-06)
(8.21524e-06 -1.95275e-11 -4.76258e-06)
(-4.11766e-06 1.48015e-11 -4.54343e-06)
(1.08031e-05 -2.73142e-11 -4.77737e-06)
(-6.64637e-06 2.24454e-11 -4.52574e-06)
(1.41891e-05 -4.2269e-11 -4.78977e-06)
(-1.00699e-05 4.18999e-11 -4.51128e-06)
(1.85465e-05 -5.29281e-11 -4.79755e-06)
(-1.45618e-05 4.92074e-11 -4.50243e-06)
(2.40497e-05 -7.19263e-11 -4.79816e-06)
(-2.02906e-05 6.59808e-11 -4.50182e-06)
(3.0867e-05 -9.60742e-11 -4.78893e-06)
(-2.74132e-05 1.36072e-10 -4.51205e-06)
(3.91526e-05 -1.48766e-10 -4.76722e-06)
(-3.60699e-05 1.2625e-10 -4.53568e-06)
(4.90419e-05 -2.33851e-10 -4.73066e-06)
(-4.63816e-05 1.79654e-10 -4.57509e-06)
(6.06518e-05 -2.05101e-10 -4.67715e-06)
(-5.84507e-05 2.1277e-10 -4.63219e-06)
(7.4073e-05 -2.70677e-10 -4.60491e-06)
(-7.23607e-05 3.6804e-10 -4.7085e-06)
(8.93666e-05 -3.5936e-10 -4.51232e-06)
(-8.81615e-05 3.23257e-10 -4.80456e-06)
(0.000106553 -4.01735e-10 -4.39878e-06)
(-0.000105851 4.24382e-10 -4.92159e-06)
(0.000125618 -4.27532e-10 -4.26355e-06)
(-0.000125384 5.82907e-10 -5.05959e-06)
(0.000146501 -5.54215e-10 -4.10678e-06)
(-0.000146759 5.47047e-10 -5.21838e-06)
(0.00016919 -4.98261e-10 -3.92925e-06)
(-0.000170109 5.82584e-10 -5.39712e-06)
(0.000193793 -5.1713e-10 -3.73155e-06)
(-0.000195357 5.93511e-10 -5.59492e-06)
(0.000220217 -6.42225e-10 -3.51492e-06)
(-0.000222403 6.79143e-10 -5.81107e-06)
(0.000248688 -6.07051e-10 -3.28022e-06)
(-0.000251482 7.2681e-10 -6.04414e-06)
(0.000279197 -7.84402e-10 -3.02889e-06)
(-0.000282581 1.14871e-09 -6.29288e-06)
(0.000311734 -1.14614e-09 -2.7628e-06)
(-0.000315686 1.20669e-09 -6.55549e-06)
(0.00034628 -1.43797e-09 -2.48389e-06)
(-0.000350771 1.74221e-09 -6.83008e-06)
(0.000382812 -1.9062e-09 -2.19444e-06)
(-0.000387796 1.90281e-09 -7.11472e-06)
(0.000421292 -2.19752e-09 -1.89705e-06)
(-0.000426706 2.20258e-09 -7.40759e-06)
(0.00046168 -2.61766e-09 -1.59452e-06)
(-0.000467449 2.53043e-09 -7.70772e-06)
(0.000503903 -3.01148e-09 -1.28687e-06)
(-0.00050995 2.88669e-09 -8.01407e-06)
(0.000547856 -3.1162e-09 -9.73847e-07)
(-0.000554054 3.088e-09 -8.32382e-06)
(0.000593446 -2.78334e-09 -6.57943e-07)
(-0.000599545 3.37077e-09 -8.6339e-06)
(0.0006406 -3.89853e-09 -3.43967e-07)
(-0.000646662 3.80955e-09 -8.94098e-06)
(0.000689279 -3.81902e-09 -3.3502e-08)
(-0.000695263 4.68446e-09 -9.25128e-06)
(0.000739324 -4.44255e-09 2.79599e-07)
(-0.0007452 4.0741e-09 -9.56317e-06)
(0.000790561 -4.72119e-09 5.93399e-07)
(-0.000796307 5.56483e-09 -9.87495e-06)
(0.000842762 -5.37424e-09 9.06696e-07)
(-0.00084842 4.95895e-09 -1.01854e-05)
(0.000895667 -5.9798e-09 1.21758e-06)
(-0.000901242 6.81926e-09 -1.04927e-05)
(0.00094897 -6.50685e-09 1.5234e-06)
(-0.000954297 6.65871e-09 -1.07939e-05)
(0.00100233 -7.38234e-09 1.82194e-06)
(-0.00100722 6.88146e-09 -1.10861e-05)
(0.00105534 -7.00289e-09 2.11136e-06)
(-0.00105957 6.74068e-09 -1.13659e-05)
(0.00110751 -6.21367e-09 2.38759e-06)
(-0.00111081 6.72508e-09 -1.16285e-05)
(0.00115822 -3.89441e-09 2.64685e-06)
(-0.00116044 2.16713e-10 -1.1867e-05)
(0.00120677 4.6505e-13 2.88449e-06)
(-0.00120785 -1.5143e-17 -1.20731e-05)
(0.00125228 -3.88674e-19 3.09192e-06)
(-3.50427e-07 -2.39354e-13 -4.74517e-06)
(3.66958e-07 -4.99286e-12 -4.74738e-06)
(-4.17277e-07 -2.48066e-12 -4.74275e-06)
(4.68853e-07 -4.16007e-12 -4.74961e-06)
(-5.73339e-07 -2.19085e-12 -4.7397e-06)
(6.66101e-07 -3.70402e-12 -4.75218e-06)
(-8.33319e-07 -1.95149e-12 -4.73579e-06)
(9.77464e-07 -4.25554e-12 -4.75534e-06)
(-1.21999e-06 -6.08125e-13 -4.73081e-06)
(1.42989e-06 -4.87584e-12 -4.75922e-06)
(-1.76457e-06 -7.98674e-13 -4.7247e-06)
(2.05891e-06 -3.89367e-12 -4.76383e-06)
(-2.50671e-06 1.1781e-12 -4.71753e-06)
(2.90898e-06 -5.2334e-12 -4.76898e-06)
(-3.49448e-06 3.03492e-13 -4.70957e-06)
(4.03373e-06 -5.45815e-12 -4.77422e-06)
(-4.78431e-06 -1.38134e-12 -4.70139e-06)
(5.49471e-06 -7.61006e-12 -4.7788e-06)
(-6.44015e-06 1.41948e-12 -4.69386e-06)
(7.35944e-06 -8.17081e-12 -4.78166e-06)
(-8.53164e-06 8.67793e-12 -4.68816e-06)
(9.7001e-06 -1.46579e-11 -4.78144e-06)
(-1.11318e-05 1.86005e-11 -4.68577e-06)
(1.25909e-05 -2.2867e-11 -4.7765e-06)
(-1.43144e-05 2.31978e-11 -4.68834e-06)
(1.61055e-05 -3.14522e-11 -4.76516e-06)
(-1.81513e-05 1.72451e-11 -4.69761e-06)
(2.03147e-05 -3.33493e-11 -4.74569e-06)
(-2.271e-05 2.53835e-11 -4.71525e-06)
(2.52846e-05 -5.83782e-11 -4.71658e-06)
(-2.80526e-05 5.79413e-11 -4.74271e-06)
(3.10748e-05 -5.11847e-11 -4.67659e-06)
(-3.42347e-05 8.0597e-11 -4.78121e-06)
(3.7737e-05 -9.737e-11 -4.62488e-06)
(-4.13047e-05 8.04956e-11 -4.83151e-06)
(4.53125e-05 -9.82534e-11 -4.56101e-06)
(-4.93027e-05 1.59614e-10 -4.89404e-06)
(5.38315e-05 -1.44666e-10 -4.48494e-06)
(-5.82569e-05 1.54661e-10 -4.96873e-06)
(6.33179e-05 -2.0752e-10 -4.39692e-06)
(-6.81778e-05 1.84105e-10 -5.05518e-06)
(7.37849e-05 -2.21379e-10 -4.29739e-06)
(-7.90695e-05 2.03493e-10 -5.15281e-06)
(8.52527e-05 -2.01166e-10 -4.18701e-06)
(-9.09547e-05 3.28273e-10 -5.26107e-06)
(9.77366e-05 -2.90044e-10 -4.06791e-06)
(-0.000103856 3.56616e-10 -5.37643e-06)
(0.000111248 -3.45634e-10 -3.94436e-06)
(-0.000117824 3.17564e-10 -5.49461e-06)
(0.000125835 -3.41038e-10 -3.81264e-06)
(-0.000132879 3.54269e-10 -5.61904e-06)
(0.000141524 -3.58067e-10 -3.67506e-06)
(-0.000149024 5.02389e-10 -5.74628e-06)
(0.000158342 -4.86428e-10 -3.53552e-06)
(-0.000166288 4.24838e-10 -5.87842e-06)
(0.000176328 -6.23048e-10 -3.39181e-06)
(-0.00018471 5.06189e-10 -6.01656e-06)
(0.000195474 -6.40001e-10 -3.24248e-06)
(-0.000204273 5.4851e-10 -6.16065e-06)
(0.000215762 -8.82354e-10 -3.08811e-06)
(-0.000224957 8.28052e-10 -6.30955e-06)
(0.00023717 -8.27834e-10 -2.92955e-06)
(-0.000246741 1.03332e-09 -6.46239e-06)
(0.000259663 -1.12188e-09 -2.76782e-06)
(-0.000269593 1.23104e-09 -6.61832e-06)
(0.000283197 -1.13103e-09 -2.60371e-06)
(-0.000293482 1.07516e-09 -6.7767e-06)
(0.000307715 -8.65488e-10 -2.43793e-06)
(-0.000318358 6.3189e-10 -6.93683e-06)
(0.00033315 -6.30091e-10 -2.271e-06)
(-0.000344127 4.69748e-10 -7.09757e-06)
(0.000359422 -2.99921e-10 -2.1037e-06)
(-0.000370683 1.96027e-10 -7.25822e-06)
(0.000386419 -2.4199e-10 -1.93716e-06)
(-0.000397894 2.99185e-10 -7.41833e-06)
(0.000414006 -4.28233e-10 -1.77069e-06)
(-0.00042559 5.082e-10 -7.57773e-06)
(0.000442008 -5.86289e-10 -1.60505e-06)
(-0.000453571 5.50996e-10 -7.73582e-06)
(0.000470232 -5.83622e-10 -1.44113e-06)
(-0.000481615 7.02725e-10 -7.89171e-06)
(0.000498466 -3.5216e-10 -1.28035e-06)
(-0.000509473 1.86096e-10 -8.04289e-06)
(0.00052649 -8.27596e-11 -1.12431e-06)
(-0.00053685 8.96159e-11 -8.18838e-06)
(0.000554075 -9.588e-11 -9.74613e-07)
(-0.000563548 1.12214e-10 -8.32684e-06)
(0.000581 -1.08475e-10 -8.33116e-07)
(-0.000589507 1.11247e-10 -8.45641e-06)
(0.000607067 -1.36704e-10 -7.0138e-07)
(-0.000614536 1.14098e-10 -8.57522e-06)
(0.000632113 -1.17707e-10 -5.82739e-07)
(-0.000638463 1.12722e-10 -8.67968e-06)
(0.000656017 -9.23364e-11 -4.80509e-07)
(-0.000661165 9.63446e-11 -8.76443e-06)
(0.000678724 -5.3561e-11 -3.97511e-07)
(-0.0006825 8.73302e-13 -8.82622e-06)
(0.000700322 1.19393e-15 -3.35269e-07)
(-0.000702411 -1.93207e-18 -8.85486e-06)
(0.000721035 -2.52274e-21 -3.0528e-07)
(-3.99159e-07 -2.54142e-12 -4.7489e-06)
(3.19627e-07 -2.20393e-12 -4.74747e-06)
(-5.77419e-07 -1.83131e-12 -4.75023e-06)
(3.41747e-07 -1.64394e-12 -4.74571e-06)
(-8.62427e-07 -2.08835e-12 -4.75152e-06)
(4.79402e-07 -2.16617e-12 -4.74358e-06)
(-1.27308e-06 -2.11037e-12 -4.75289e-06)
(7.56331e-07 -2.201e-12 -4.74089e-06)
(-1.83664e-06 -2.06777e-12 -4.75453e-06)
(1.20371e-06 -2.07895e-12 -4.73744e-06)
(-2.58669e-06 -1.60749e-12 -4.75667e-06)
(1.85779e-06 -1.87148e-12 -4.73295e-06)
(-3.56057e-06 -1.77103e-12 -4.75963e-06)
(2.75742e-06 -2.40128e-12 -4.72706e-06)
(-4.79689e-06 -1.5612e-12 -4.76383e-06)
(3.94157e-06 -3.05426e-12 -4.7193e-06)
(-6.33312e-06 -1.82959e-12 -4.7698e-06)
(5.44712e-06 -2.36119e-12 -4.70913e-06)
(-8.20366e-06 -1.71108e-12 -4.77812e-06)
(7.30728e-06 -2.91675e-12 -4.69591e-06)
(-1.04386e-05 -1.46957e-12 -4.78946e-06)
(9.55065e-06 -4.15025e-12 -4.67901e-06)
(-1.3063e-05 -1.02521e-12 -4.80445e-06)
(1.22007e-05 -5.46128e-12 -4.6578e-06)
(-1.60961e-05 2.22765e-12 -4.82373e-06)
(1.52755e-05 -6.24037e-12 -4.6317e-06)
(-1.95525e-05 5.01446e-12 -4.84785e-06)
(1.87886e-05 -1.30225e-11 -4.60024e-06)
(-2.3442e-05 1.25756e-11 -4.87727e-06)
(2.27485e-05 -2.53352e-11 -4.56307e-06)
(-2.77707e-05 1.98164e-11 -4.9123e-06)
(2.71605e-05 -1.82576e-11 -4.52e-06)
(-3.25423e-05 3.8874e-11 -4.95314e-06)
(3.20267e-05 -5.15863e-11 -4.47094e-06)
(-3.77588e-05 6.65483e-11 -4.99972e-06)
(3.73488e-05 -7.46657e-11 -4.41598e-06)
(-4.34222e-05 7.51911e-11 -5.05179e-06)
(4.31292e-05 -8.40922e-11 -4.35541e-06)
(-4.9535e-05 9.93197e-11 -5.10895e-06)
(4.9373e-05 -1.337e-10 -4.28976e-06)
(-5.60993e-05 1.37657e-10 -5.17065e-06)
(5.60812e-05 -1.67752e-10 -4.22002e-06)
(-6.32298e-05 1.6332e-10 -5.23617e-06)
(6.34547e-05 -1.84524e-10 -4.14702e-06)
(-7.10275e-05 1.85877e-10 -5.30453e-06)
(7.14978e-05 -2.09118e-10 -4.07165e-06)
(-7.94947e-05 1.86248e-10 -5.37463e-06)
(8.02138e-05 -2.71235e-10 -3.99414e-06)